ITEM: TIMESTEP
542
ITEM: NUMBER OF ATOMS
1013
ITEM: BOX BOUNDS ss ss ss
6.8431857894000004e+01 1.0226048210600001e+02
1.1754836510000001e+01 4.2396663490000002e+01
9.0077348300630277e+01 1.2281036551804675e+02
ITEM: ATOMS id type x y z fx fy fz
1 3 82.0488 15.9124 95.2395 1.01045 0.76937 -0.0861359
2 2 74.6979 20.2794 94.0098 0.424898 0.320341 -0.237691
3 1 80.5822 20.3368 94.2077 -1.84764 1.41261 1.66766
4 1 77.4676 19.709 93.7517 0.469308 1.08713 -1.08133
5 1 76.6715 17.465 95.2822 1.48417 -0.842798 -0.059715
6 1 79.6986 17.5817 94.7043 0.353257 0.270815 0.36078
7 2 78.9022 21.968 95.3502 0.000200197 0.000634021 -0.000114823
8 1 82.2944 19.1917 92.6646 2.14848 -0.893713 -1.62964
9 1 80.1116 21.4715 91.4739 1.30332 -0.711513 -0.843995
10 1 85.3375 20.2323 92.9659 -0.401362 -0.176836 0.77388
11 2 83.0823 21.5425 94.0786 3.17008e-05 0.000459363 0.000423598
12 3 85.3304 19.502 95.7457 -6.03007e-06 0.000420233 -1.86682e-05
13 3 84.4194 17.4729 93.9669 0.268929 0.647519 0.085146
14 1 84.5698 19.0835 98.3717 0.000936469 0.000488431 -4.52338e-05
15 1 87.2931 18.1119 94.8929 0.12887 0.723353 0.433829
16 1 88.4662 21.1453 94.1286 -0.151646 -0.75428 -0.600457
17 2 75.0088 25.1451 92.9238 -0.224124 0.723433 2.13164
18 1 71.4142 23.9602 94.5428 -0.859283 0.574826 0.0308225
19 3 72.9289 26.0015 93.6479 0.0800068 -0.916827 0.0954996
20 1 73.8322 23.1089 93.6193 -0.387138 -1.78108 0.473513
21 1 77.246 26.3611 96.7179 0.000248399 0.000210655 8.70789e-05
22 2 76.3798 21.8988 95.369 6.57477e-05 -0.000477595 0.000256727
23 1 75.6507 23.0817 91.6011 -0.225432 -1.5631 0.59556
24 3 78.3445 22.1484 92.8781 -1.98845 0.802791 1.15768
25 5 77.8368 23.4759 90.4425 2.37661 0.183995 -1.02075
26 4 78.7581 25.1882 92.2316 -0.000409213 -0.000171719 0.000507697
27 1 76.1609 26.04 91.1223 2.56886 0.995131 -2.33185
28 1 77.2913 24.2402 94.3125 0.000193414 -4.88261e-05 0.000349986
29 1 80.2057 25.8675 95.8364 0.00097766 0.00038424 -0.000113993
30 1 80.6025 23.4574 93.9327 -0.00026199 9.42202e-05 0.000451652
31 2 80.9496 24.0492 91.3548 -0.577175 -0.239116 -0.314928
32 1 82.9623 22.0521 91.2864 0.530542 0.0378638 1.21279
33 1 80.1166 26.5062 90.081 1.23351 -0.771663 -0.188815
34 2 83.0433 24.908 90.7219 0.792113 0.435089 0.303699
35 2 84.7897 26.2581 92.5774 -0.91933 -0.51511 -0.0981078
36 1 83.4297 24.1821 93.5378 -0.000427774 0.000300033 -0.000326298
37 1 81.3737 26.3955 92.7909 0.000325843 0.00010323 -0.000551134
38 1 85.9104 22.1123 95.221 -0.000695265 0.000339011 -0.000414361
39 1 85.3902 26.0581 95.1934 0.000118971 0.000675345 -0.000841249
40 1 86.0905 23.312 92.4979 -0.4144 -0.272822 -0.0773016
41 1 87.4076 26.0047 92.3473 0.545603 -0.00243216 0.525679
42 5 89.5504 23.7951 93.3926 -0.064182 -0.0082325 0.12836
43 3 87.2717 24.3831 94.6319 -0.000807769 0.00114097 -0.000167559
44 1 89.0593 26.3388 95.046 0.0005745 -0.000492433 0.000259705
45 4 90.8195 26.2603 93.0191 0.579866 0.0649278 -0.0753703
46 1 74.2083 27.7437 92.2998 0.530401 -0.401325 -2.59294
47 1 73.6362 30.8619 92.5532 -0.0136962 1.39341 -1.36707
48 1 72.6233 28.7254 94.0669 -1.21307 1.49301 1.4494
49 1 71.4943 31.4193 94.3639 0.302894 0.0684245 -0.392344
50 2 74.994 30.1887 94.6157 0.00012759 -1.09932e-05 0.000793596
51 1 78.5388 28.1855 91.5034 -0.478114 0.475445 1.10532
52 3 78.8301 26.996 93.9538 0.000264657 0.000567034 -1.24926e-05
53 1 76.1482 29.784 91.7813 0.838355 0.393427 -0.00354033
54 1 78.9051 31.4248 92.1743 1.689 -1.40396 -0.19116
55 1 76.2976 27.353 94.1226 -0.000144316 0.000379285 -0.000322135
56 3 77.7551 29.5557 93.9577 -0.000344321 0.000210981 6.96622e-05
57 3 80.4918 31.6782 94.5685 -0.000594853 -4.97639e-05 -0.000313812
58 1 80.4974 29.0874 93.9102 0.000219418 0.000274405 0.000354708
59 1 83.4721 28.5952 93.3625 2.56041e-05 0.000491388 -0.00053542
60 3 82.7834 27.526 90.8296 0.530194 -0.17957 0.134989
61 3 81.0468 29.1657 91.186 -0.0362755 0.36836 0.556535
62 2 84.9497 30.9702 92.3935 0.294604 -0.131785 0.624069
63 1 82.2735 31.6946 92.5747 -0.483696 -0.352436 -0.434579
64 1 85.599 28.4606 91.5473 1.09259 0.296693 0.0982706
65 2 89.0746 28.2569 93.084 0.297243 0.248945 0.0473337
66 1 90.572 30.7715 93.8475 -0.371812 0.0491519 0.702427
67 3 87.5506 30.1995 93.0246 -0.177043 -0.16688 -0.30268
68 1 85.6904 30.1133 94.9755 0.000373986 0.000775291 -1.51752e-05
69 3 86.7622 27.9469 94.0316 5.70911e-05 0.000411597 -0.000114706
70 1 92.0466 28.1667 95.3805 0.261666 -0.152803 -0.965227
71 1 73.9974 33.3611 94.1766 1.21128 -0.286905 -0.897404
72 5 71.6523 34.2044 95.1411 -0.275746 1.06009 0.275025
73 1 76.7618 32.2462 93.6712 -1.32355 -0.495263 0.583199
74 1 78.0495 34.3846 92.3727 -1.22358 1.28926 1.42278
75 3 78.1033 36.4131 94.1479 1.06371 -0.114607 -0.543188
76 2 76.6833 34.8153 95.0527 -0.992556 -0.390769 0.518203
77 5 79.006 33.7922 95.2589 0.000272124 -0.000340828 -0.000705463
78 1 80.794 36.1162 94.2966 -1.35108 1.28049 0.768752
79 3 80.5552 33.6262 93.3618 -9.37595e-05 0.000394961 -0.000291467
80 1 80.0796 33.7213 90.9158 2.53069 -0.305967 -1.55322
81 5 84.4341 33.4552 91.7907 1.63801 -0.73654 -0.87132
82 1 82.7472 34.9426 92.9932 1.0283 0.19719 0.220467
83 1 84.668 33.0345 94.7018 -0.000121722 0.000326533 3.57424e-05
84 2 86.052 35.2334 93.7053 0.0294217 -0.420987 -0.0352073
85 1 87.6041 32.6833 93.8744 0.250807 -0.028546 0.826836
86 4 92.2133 33.1035 95.3541 -0.522903 -0.64631 0.14275
87 1 75.5271 15.9381 97.3149 0.156977 -1.16231 -0.701573
88 1 75.3997 15.4962 100.043 0.172196 -0.0545174 0.513535
89 3 78.1973 15.7812 97.3996 -1.84114 0.653671 0.963157
90 1 80.8705 14.0932 98.8094 -1.35847 0.620917 -0.493152
91 2 80.0184 15.4007 96.3325 1.57172 -0.576171 -0.185018
92 2 77.9419 15.834 99.871 -0.00402121 -0.00420011 -0.00112952
93 4 77.9485 13.7295 99.0945 -0.0512799 -1.04292 -0.335285
94 1 83.3651 14.6415 97.8175 1.10059 -0.973428 -0.490296
95 1 87.5364 15.7505 98.9071 -0.208055 -0.768252 0.663073
96 1 84.8259 16.7062 96.5924 1.16709 0.824645 -1.14966
97 1 85.9563 14.1365 100.432 -0.517713 -0.433214 0.794939
98 1 83.1792 15.6777 100.509 0.00109794 0.00100547 -0.00111127
99 2 85.1304 16.6972 99.2963 -0.000227065 -0.000164824 0.000225942
100 5 90.8637 15.2185 100.188 0.981402 0.45053 0.278505
101 2 70.2712 20.6022 97.9345 -0.859799 0.361874 1.36025
102 2 71.2111 21.1784 100.463 -0.69306 -0.705002 -0.17574
103 5 72.2764 19.6469 97.0313 -0.149729 -0.238398 0.63327
104 5 74.4704 18.7403 96.1229 0.637501 -0.394369 -0.599762
105 1 77.0553 17.9998 98.7496 5.11385e-05 0.00023486 -0.000247393
106 3 74.3647 17.7665 98.5532 0.20689 -0.395534 0.166929
107 1 75.2803 20.3241 98.2786 -5.03511e-05 -6.58415e-05 -2.31825e-05
108 1 73.8695 21.8258 96.1872 -0.57829 0.374256 -0.844542
109 1 72.862 22.11 98.8494 -0.000241645 -3.76359e-05 0.000269642
110 1 73.1166 19.1803 100.086 -0.574484 1.029 0.641901
111 2 77.9142 17.66 101.395 -0.000560381 0.000964385 0.00152032
112 2 78.2941 20.6054 102.71 0.000153485 -0.000144069 0.000161199
113 1 82.0105 17.1682 97.6607 -0.000481647 -0.000218934 0.00172122
114 2 79.4602 17.8914 97.4216 0.00044096 -0.000331922 0.000356904
115 1 79.1916 19.9394 99.7175 0.000577116 -0.000882997 0.000112616
116 4 80.7647 20.2431 97.2087 -0.000112128 0.000232801 -8.47105e-05
117 1 77.8747 19.8417 96.5556 0.00046012 -0.000339142 0.000138309
118 5 82.2419 21.6473 99.3179 0.000345413 0.00072498 0.000464286
119 5 82.7447 18.7583 95.4678 0.000220929 -9.68162e-05 -0.000462518
120 2 77.5765 21.5692 98.4409 0.000337614 -3.8585e-05 -0.000689266
121 1 82.172 18.9808 100.035 -0.00188509 -0.0030561 0.000388046
122 4 84.5865 20.8332 100.762 -0.000176509 0.00121415 0.000313886
123 4 83.2699 22.9662 101.771 -0.000217442 0.00120109 -0.000219483
124 2 87.1373 18.3819 97.6116 -0.000224556 1.575e-05 -0.000774596
125 1 86.5194 21.333 98.2121 2.56999e-05 0.000657442 -0.000708133
126 1 83.5444 21.2877 96.7401 0.000446794 -0.000120819 -0.000481669
127 1 87.0871 18.3006 100.342 0.00151654 0.000933332 -0.000940205
128 1 89.4799 16.9261 97.6447 1.59923 1.05529 -0.395392
129 1 90.4496 19.1416 96.2802 0.0707486 1.03719 0.020627
130 2 90.3299 21.4731 97.7715 0.000602596 0.00276042 -0.00318838
131 3 88.1744 20.3367 96.5672 0.000862423 0.000157052 0.000592767
132 1 89.4986 19.79 99.4288 -0.00070269 -0.00369634 0.00320892
133 3 89.696 17.4049 100.333 -0.000833793 0.00267216 -0.00144281
134 1 92.2735 18.0389 99.7635 -0.0448028 -0.931648 -0.139988
135 3 89.3409 18.9349 102.243 -0.000191022 -0.000831775 -0.000690067
136 1 92.9006 20.6585 98.6279 -0.0922958 -0.148008 -0.141157
137 3 95.2202 18.2125 100.924 -0.357415 0.0923769 0.204555
138 1 70.1324 23.3632 98.5911 -0.227606 -0.237819 -0.820847
139 2 69.6022 25.2034 96.4379 0.0236058 -0.671582 0.403235
140 3 71.0527 22.2159 96.3766 0.666561 -0.0704888 -0.0770932
141 1 69.101 25.951 99.5074 0.499272 0.521567 -0.410532
142 3 71.6016 25.2475 99.7921 0.000423248 -5.69184e-05 -0.000516686
143 1 72.5233 24.5405 97.2071 -0.000177056 1.0683e-05 -0.00014202
144 1 75.6347 23.4284 97.9576 0.000253784 0.000528071 -0.000549924
145 5 74.7724 24.9675 95.5434 9.64116e-05 -5.00307e-05 -7.40995e-05
146 1 71.5483 26.8112 95.576 -1.01875 -0.619036 1.33565
147 3 74.9296 26.0103 97.9441 0.00101406 -8.72393e-06 -0.000194677
148 1 78.7264 27.8943 98.9924 0.000605141 -0.000857474 -0.000376085
149 2 73.8726 24.6262 99.5915 0.000420521 -0.000273915 3.21829e-05
150 1 77.1352 25.4713 99.6938 0.00083401 -0.000165604 -6.78442e-05
151 1 78.4031 23.7108 97.1668 0.000736697 0.00121544 0.000387573
152 1 79.8105 24.6664 101.281 0.000383768 -2.75839e-05 -0.000742681
153 3 79.8574 22.707 99.1888 0.000498665 -0.000267141 0.000740506
154 1 81.3512 23.2272 96.872 0.00053042 0.000114803 -2.98358e-05
155 3 79.8698 25.381 98.5348 0.00150378 0.000742719 -0.000526385
156 1 82.7356 25.8439 97.6866 0.000637461 0.000825299 -0.000242908
157 2 81.8868 24.1863 99.6852 6.02133e-05 0.000276623 4.54427e-05
158 1 81.336 27.0007 100.042 0.000350684 -0.00130394 0.000118226
159 2 83.99 23.9519 96.163 0.000187339 -0.000277671 -0.000794117
160 1 84.5282 23.4703 98.8607 -0.000324504 -8.43782e-05 -0.000875765
161 2 87.2177 25.2168 100.227 -0.000301615 0.000354742 -2.6781e-06
162 3 86.457 23.9384 97.0586 0.000492501 0.000388663 -9.07331e-05
163 2 82.7087 26.6919 95.1199 0.000831006 0.000590532 -0.000174462
164 1 85.5955 26.2877 98.1617 0.000977206 0.000766508 0.00010203
165 1 83.917 25.6188 100.901 0.000399382 0.00127195 -0.000921701
166 2 85.7445 27.4405 100.52 0.000538119 0.000714479 -0.000272158
167 1 88.6737 22.9566 99.4515 -0.000509582 0.00109334 -0.000212623
168 1 88.9594 23.0724 96.2267 -2.83352e-05 0.0006786 -0.000121014
169 2 90.4574 26.0131 99.4328 0.000118978 -5.46781e-05 0.00169223
170 3 92.573 26.5504 98.0846 0.000276496 0.000676313 0.000979842
171 3 91.294 21.9019 100.062 0.00100729 0.000220201 0.000339949
172 5 90.7225 24.1247 101.057 -0.000946423 0.0005429 0.000779731
173 5 89.3705 26.4787 101.901 0.000235379 0.000353218 -5.4305e-05
174 1 92.8463 26.0833 100.997 -0.000632721 0.000160107 0.00012541
175 1 91.5748 23.8898 98.1678 -0.002153 0.000206385 -0.00062809
176 1 91.6644 21.9729 95.6236 0.162092 0.125672 -0.106795
177 1 92.5269 24.859 95.6766 -0.699646 0.970411 0.370419
178 2 94.4033 22.7565 98.0129 -0.0895002 0.396924 -0.69784
179 1 94.963 25.373 99.0398 0.0613724 0.401305 0.33993
180 3 93.4002 23.4622 100.045 -0.000856319 0.00156347 -0.000796555
181 3 70.4634 29.3399 95.6979 0.173096 0.065979 0.608858
182 2 69.5961 27.5262 97.3978 1.18745 -0.0652906 -0.494369
183 2 68.4356 28.6627 99.0257 -0.489711 0.366871 1.33594
184 1 70.6294 30.0889 98.4423 0.503556 -1.0679 0.0743096
185 1 71.3198 28.121 100.544 0.00118807 -1.12445e-05 -0.00135376
186 2 74.3033 27.5146 95.9612 0.000651899 0.000598455 -0.000486708
187 1 76.4069 29.321 96.5743 -0.000643423 0.000207694 -0.00127928
188 1 73.1597 29.8434 96.8717 0.000235214 0.000710388 -0.000230782
189 1 72.648 27.2932 98.2559 0.000521145 0.000520944 0.000707112
190 1 75.6323 28.2285 99.0881 0.000394475 0.000369093 0.000104464
191 2 73.5028 29.5886 99.9421 0.000522148 -0.00063574 0.00112635
192 2 76.6636 30.2316 100.773 -6.31162e-05 0.00104655 0.000891486
193 1 75.2734 31.3176 98.7834 -0.000355092 0.000427941 -0.000176951
194 3 72.6075 31.9229 99.1136 4.96169e-06 -0.000353978 0.000428229
195 2 78.9027 28.4173 96.1114 0.0011852 0.000169072 0.0003585
196 1 81.4065 28.5123 97.0128 0.000368648 -0.000414068 -1.22397e-05
197 4 78.6374 31.0222 95.8826 0.00110081 -0.000108311 0.000423954
198 1 78.3998 30.7124 98.6657 -0.00027088 -0.000377926 0.000417869
199 4 80.9555 31.6461 97.504 0.000132098 -0.00074695 0.0005839
200 2 81.0592 29.8323 99.3865 0.000121112 0.000527313 -0.000540752
201 1 77.6522 32.8355 100.646 0.000717274 -0.000405109 -0.000164889
202 2 84.2902 28.3155 96.4771 0.000687297 0.000640781 0.000262551
203 1 83.7152 28.6448 99.1672 0.000444149 -2.41998e-05 -0.000124523
204 3 87.2561 27.5979 96.549 0.000612699 0.000383868 0.000187903
205 1 84.1778 31.4095 97.7306 -0.000351622 7.791e-05 6.00466e-05
206 1 82.7606 30.6464 95.3498 0.000595152 6.6166e-05 -0.000271679
207 1 86.5068 29.6352 98.0491 1.49516e-05 -0.000439031 7.30952e-05
208 1 88.1439 27.7367 99.5704 -0.000123973 -2.6418e-05 0.00075012
209 3 85.6617 29.8432 100.758 -0.000282202 0.000582009 -0.000219269
210 1 88.5072 25.4278 97.767 5.03337e-05 -0.0011645 -0.00103351
211 3 89.2229 30.0692 98.4545 0.000863104 -0.000289843 -7.10492e-05
212 1 90.2326 27.8899 97.4224 0.000543195 -1.24582e-05 -8.63411e-05
213 1 88.604 29.6952 95.5904 0.000533615 -2.08973e-05 -0.000423158
214 2 91.3416 31.0968 99.2494 0.000555035 8.58444e-05 -0.000414466
215 3 91.2242 30.6057 96.4742 0.000688187 -0.000295843 0.000727547
216 1 90.9638 28.4799 100.3 -0.000295817 -0.00037512 -0.000527029
217 1 93.2097 29.9795 101.327 -0.000170424 0.000321895 0.000530644
218 1 88.2046 30.4156 100.866 -0.00107868 0.000403797 -0.000579122
219 2 94.759 27.4737 97.121 -0.135358 0.210641 0.253958
220 2 94.2415 27.9941 99.8069 0.000312718 -6.65534e-05 0.000829651
221 1 96.8831 27.833 99.953 -0.19113 -0.71844 0.0347363
222 4 94.0677 30.4025 95.5537 -0.56652 0.0133849 0.562872
223 1 92.9631 29.44 98.0336 -5.23615e-05 0.000295324 -0.00126567
224 3 93.8597 32.0477 99.9043 -0.000307896 0.000653328 -0.000191212
225 1 95.6681 30.3866 98.7867 -0.288957 -0.300071 0.272901
226 5 70.8771 32.3141 96.8024 -0.224885 0.204898 1.23666
227 2 70.005 32.4744 99.3088 0.310429 0.814903 0.664422
228 1 72.1691 34.2116 100.793 0.831525 -0.158841 1.65134
229 4 73.7012 32.4804 96.6658 0.000768093 0.00051954 -0.00022119
230 4 75.7434 34.0984 98.1242 0.000818676 0.000454994 -0.000347782
231 1 72.8616 34.5447 98.2845 0.00896886 0.0868906 -1.09334
232 4 74.2681 35.5608 96.1643 0.370206 0.312765 -0.322157
233 4 76.3311 32.3135 96.3201 0.000575917 -9.98282e-05 1.46436e-05
234 4 76.9598 36.5049 97.5244 -0.472789 -0.188484 -0.769071
235 3 73.4343 36.5282 100.295 -1.17335 -0.10519 1.81868
236 2 75.4542 34.7271 100.549 0.000187083 -0.000521089 -0.00109277
237 1 78.0429 35.7527 99.9529 -0.000642018 -0.000403419 -0.000371082
238 2 75.087 36.5036 98.9196 0.685671 0.337826 -0.876446
239 4 78.2997 33.5291 97.8357 0.000622537 -0.00067781 1.52461e-05
240 4 84.9781 34.1813 97.6867 -0.000130798 -5.26614e-05 -0.00017691
241 1 79.4203 36.2464 96.8124 8.60601e-05 7.66074e-05 -0.000762833
242 2 80.3866 37.0509 99.3265 0.000131462 0.000526619 -0.000176398
243 4 80.5517 34.4636 98.6393 -0.000353223 -0.000129177 0.000268209
244 5 84.7802 33.9927 100.408 -0.000409603 0.000704114 -0.000280066
245 1 82.9291 36.0201 99.6538 0.000656981 0.000653716 -7.69821e-05
246 1 82.0261 33.7959 95.9169 0.000387216 -0.000394646 -6.01253e-05
247 4 86.7353 35.7404 99.6198 -0.000203865 0.000281077 9.2311e-05
248 2 86.6875 32.2105 96.3813 0.000260343 0.000513009 0.000254625
249 1 84.5133 36.0012 95.8004 -0.6451 0.109376 -0.518345
250 2 82.1001 36.2942 97.0894 2.67259e-05 0.000104114 -1.7345e-05
251 1 86.9467 32.4748 99.0337 -0.000104277 -0.000215393 0.000138875
252 4 87.7359 33.9752 101.279 0.000181572 -0.000168476 -0.000436515
253 1 89.3029 32.2603 97.0818 0.000613362 0.000287403 0.000105844
254 1 92.0262 33.5201 98.1673 -0.450198 -0.398839 0.576398
255 1 89.5766 34.6613 95.7354 0.703712 -0.116312 -0.923544
256 2 87.1066 34.848 96.2075 -0.863597 -0.663885 0.303836
257 1 89.4278 34.9348 98.6099 -0.341408 0.161647 0.550645
258 4 87.3235 37.118 97.548 0.484836 -0.144711 -0.446216
259 3 89.5586 32.5942 99.9294 -0.000345649 -0.00031567 -0.000253252
260 1 91.782 32.9228 101.369 -0.00119992 3.84611e-05 -0.000840353
261 1 92.3573 35.8205 100.289 -0.0946278 -0.584875 -0.214354
262 4 94.7388 33.0181 97.8164 0.305047 -0.147854 -0.387026
263 4 94.9753 35.2083 99.6466 0.824366 0.318909 -0.788427
264 4 76.712 38.7131 99.0496 -0.954981 0.130885 0.239936
265 3 77.4223 37.9967 95.621 0.399243 0.623719 0.822437
266 1 79.1265 39.0831 98.0249 0.762376 -0.325336 -0.496889
267 1 82.0943 38.8985 98.1904 -0.199533 0.0891566 1.20531
268 3 79.9954 38.438 95.5492 0.175811 0.250772 -0.0423106
269 1 83.3039 41.1085 100.852 0.571047 0.22998 -1.29697
270 1 81.8016 38.5193 101.205 -0.000384433 -0.000117861 -0.000383814
271 2 79.7926 40.9024 100.176 1.075 -0.1744 -0.156785
272 4 84.9439 37.5499 98.4203 -0.438797 0.291331 -0.424714
273 4 82.7873 38.4323 95.6824 0.117921 -0.396772 -0.762708
274 4 85.1851 40.2898 99.3629 0.735319 -0.6619 -0.416417
275 4 84.7349 38.0136 101.087 -0.000422591 0.000167899 -0.000104851
276 4 89.6916 37.3768 100.382 0.321594 0.153005 -0.0872768
277 1 74.6112 16.8421 104.981 0.15027 -0.158108 0.748354
278 3 76.6533 15.6884 104.009 -1.47483 0.737045 1.83678
279 3 78.0439 13.4743 104.614 0.573077 -0.924655 -1.18926
280 1 78.1027 15.0513 102.387 0.807503 -0.93668 -1.85955
281 2 79.1823 15.3806 105.696 0.000126214 0.000122174 9.46756e-05
282 1 76.8544 14.5836 106.359 -0.715815 0.751738 1.92932
283 1 80.6373 13.3784 104.311 0.548771 0.362008 0.413287
284 2 83.6396 13.3887 101.934 0.182783 -0.374683 0.168549
285 1 80.757 14.6581 101.579 -0.0471877 -0.811529 0.998562
286 1 82.8859 15.2208 103.734 -0.000105299 -0.00025009 0.000456188
287 2 83.5015 12.5844 105.01 -0.0720167 0.652257 -0.275386
288 1 80.0567 16.8069 103.738 0.00021213 -0.000811919 0.000704811
289 1 86.124 12.9793 104.584 -1.48755 -0.551639 1.86781
290 2 87.8771 13.3775 103.043 1.34796 0.564255 -0.901647
291 1 85.7416 15.5715 102.963 0.000366093 -8.51303e-05 -0.000498013
292 1 88.6045 16.0761 102.28 -0.00107862 -0.000309258 0.00040355
293 1 88.2036 14.8703 105.569 -0.00021662 -0.00049314 0.000104076
294 2 89.2262 12.1863 105.592 1.37057 0.353064 -2.04913
295 1 86.1253 17.2299 105.531 -0.000466472 -0.000485784 -0.000212181
296 3 88.9889 13.8557 101.011 -0.499012 -0.350241 -0.647489
297 1 90.6401 14.2366 103.788 -2.17423 0.223377 0.517973
298 1 93.0839 14.2064 102.875 1.4093 0.489165 0.0900592
299 3 93.7297 16.1484 101.425 -0.02183 1.10089 -0.155214
300 5 91.5094 16.9662 102.777 -0.00131491 0.000282454 -0.000303753
301 1 93.7371 15.3819 105.735 -1.95092 -1.41921 0.877078
302 1 90.9762 16.4347 105.955 -0.000100105 0.000776301 -0.000212716
303 1 95.3572 16.3876 104.096 1.62277 1.23236 -2.58098
304 1 71.289 20.9284 103.029 0.396109 0.530124 0.683136
305 2 73.8967 20.7868 102.088 0.000268095 -0.000334592 -0.000275713
306 2 72.8132 18.695 102.761 -0.512593 -0.101225 0.377001
307 5 73.9313 21.5392 104.717 -0.00090791 2.33292e-05 4.98158e-06
308 1 72.7993 19.0661 105.422 -0.311239 0.525178 0.0249557
309 5 71.4119 21.7584 105.731 -0.372561 -0.37905 0.901602
310 1 74.8671 17.2703 102.127 1.03621 0.208234 -0.374122
311 1 77.4393 18.1994 103.88 0.000350198 -0.000472513 -0.000374977
312 1 76.2504 19.7499 101.12 0.000275715 -2.05932e-05 0.000328206
313 2 75.1643 19.474 103.846 -5.11265e-05 -8.30654e-05 0.000441471
314 1 78.2296 17.673 106.632 0.000109372 0.000362817 -2.11015e-05
315 1 77.4864 20.8147 105.403 0.000443346 0.000164329 0.000424078
316 1 80.156 16.9632 99.9259 0.00707772 0.00394315 -0.00113402
317 1 80.3399 19.7361 104.415 0.000821318 -0.000557815 0.000399648
318 3 81.9699 17.3089 102.127 0.000154523 0.000251854 -0.000199125
319 3 80.048 18.858 101.949 0.000587303 -0.000708657 -0.000612036
320 2 82.4628 19.8323 102.509 0.000312374 -0.00045647 0.000325047
321 1 83.1047 18.0868 104.501 0.000864238 -0.000142235 -0.0005708
322 1 82.7453 21.7335 104.386 0.00100026 -5.02007e-05 0.000144672
323 4 80.9922 18.1354 106.693 0.000424824 -0.000413721 -0.000331376
324 2 82.2438 20.3893 106.765 -0.000409555 -0.000699997 -0.000776981
325 1 80.0122 22.4578 105.507 -4.54644e-05 -0.000574577 -0.000423673
326 5 84.4827 17.966 101.678 -3.52399e-05 0.000156305 -0.00039834
327 4 85.0548 20.0628 103.409 0.000557235 -0.000298437 0.000816872
328 1 88.1379 20.9872 103.821 -0.000280584 -0.00156466 0.00113021
329 4 87.2214 21.0608 101.141 -0.000478572 0.00100247 -0.000573015
330 3 88.8629 17.3394 104.575 -0.000198739 4.33079e-05 -0.00100939
331 4 86.973 18.3863 103.146 -0.000282292 -0.000748537 -0.000835955
332 4 84.8567 19.9702 106.08 -0.000289209 0.00018341 0.00053835
333 1 90.7363 19.2685 104.63 0.000400911 -0.000182939 0.000115418
334 1 91.8319 19.8729 101.818 -0.00126536 0.00104678 -0.000815354
335 3 90.2951 18.8766 107.393 9.82327e-05 -0.000133346 0.000901292
336 1 93.5663 18.4522 105.493 -0.000290564 0.000590839 -0.00160975
337 2 93.1547 20.6976 104.059 0.000873044 2.04086e-05 0.000670213
338 3 93.89 18.4223 102.894 -0.000598078 -0.00128686 -7.03891e-05
339 1 96.9281 18.7421 103.669 -0.445886 0.429424 -1.32078
340 1 94.7961 20.7992 101.581 -0.019065 -0.526148 -0.0338146
341 1 95.6999 21.167 104.698 0.000396722 0.000866345 0.00030657
342 3 96.214 18.4736 106.008 0.26396 0.347905 1.26738
343 1 98.5383 20.3307 106.316 -0.794552 -0.30479 -0.118888
344 4 98.265 21.3352 103.471 0.167125 0.43821 -0.105167
345 1 69.8676 23.3212 101.367 0.391987 -0.160628 0.898411
346 2 69.8831 23.9896 104.088 -0.364179 0.0268783 0.0696938
347 1 69.8568 26.857 104.352 -0.537322 0.0030823 0.477603
348 1 72.8965 23.1829 101.668 -0.00050896 -0.000138355 0.000104691
349 1 71.5226 25.6975 102.367 0.000429315 -0.000305406 -6.4211e-05
350 3 68.5478 25.4651 101.904 0.0696004 0.133496 1.38448
351 2 72.221 23.653 104.234 0.000287139 -3.07967e-05 -0.000484713
352 4 72.5467 26.2224 105.249 -0.000115783 -0.00052606 -6.80459e-05
353 2 75.093 22.0657 100.312 0.000443807 0.000348985 6.21515e-05
354 1 77.7056 22.6646 100.766 -0.00058464 -0.000262001 3.16207e-05
355 1 76.0389 22.2081 103.085 0.000253673 -0.000108894 -0.000168311
356 3 75.4265 24.2146 101.319 0.000130646 -0.00154524 -0.00119419
357 1 74.1737 26.7552 101.248 0.000927925 6.6031e-05 -0.000974348
358 1 77.1266 25.5329 102.754 0.00101781 0.00158296 0.00112019
359 1 74.5299 24.7504 103.789 -0.000617946 -0.000645878 0.000192532
360 3 78.6624 23.1328 103.3 -0.000399975 0.000247026 -0.000293605
361 1 77.1153 23.8763 105.486 3.46864e-05 0.000198845 1.65937e-05
362 3 80.1458 28.3302 103.68 0.000624113 -0.000731256 -0.000377973
363 1 80.6003 21.6909 101.789 0.000158392 4.61477e-05 -0.000663026
364 2 81.2749 23.8078 103.4 0.000110579 -4.99874e-05 -0.000689691
365 1 79.4377 25.6179 104.451 -0.000351913 -0.000417051 -0.000887676
366 2 79.1744 27.1874 101.731 0.000376903 -0.000242545 0.000709617
367 1 81.9646 26.4255 103.059 0.000196032 -8.0823e-05 -0.000409301
368 2 83.7984 24.5771 103.912 -0.000272668 -7.31931e-05 -0.000537967
369 1 80.6921 27.6598 106.242 -0.000299034 0.00036798 -0.000267183
370 1 83.9151 26.9126 105.426 0.000565487 0.000236865 -0.000892487
371 3 79.4255 24.4751 107.16 0.000183177 -0.000739785 -0.000867301
372 3 85.9149 23.3771 101.162 -0.000828973 0.00143434 0.000240162
373 1 85.7125 22.7081 103.818 -0.000196053 0.000276103 0.000464321
374 3 88.3492 23.5082 105.162 -0.000515732 -0.00059973 1.6201e-05
375 1 88.3791 23.7755 102.533 -0.000156831 -0.000332143 -0.000776705
376 1 86.2159 25.7047 102.8 -0.000621626 0.000397032 -0.000632111
377 1 91.431 25.2935 103.627 0.000289219 0.000715763 0.000333508
378 3 88.2805 24.9262 107.253 0.000776111 -0.000396028 -0.000699924
379 1 86.0512 24.9214 105.707 0.000183537 3.27616e-05 -0.000180206
380 3 89.7703 21.5443 101.814 -0.000295908 -0.000411421 -2.58212e-05
381 1 92.7465 22.7024 102.332 -0.000238655 0.000952571 -0.00214644
382 5 94.0296 26.327 104.303 -0.00105152 -0.000342877 -0.00122995
383 2 90.7403 24.4956 106.106 -0.00135442 0.000587434 -5.60856e-05
384 1 90.7127 22.3463 104.348 -0.000174564 0.000600282 -0.00165197
385 1 93.7706 23.4638 105.001 -0.00017222 -8.91259e-05 -0.000138748
386 1 93.0222 25.6057 107.082 -0.00121552 -0.000957765 -0.00180684
387 1 97.5286 25.6383 101.892 -0.42446 0.605028 0.264224
388 4 96.631 22.8964 101.018 -0.170292 0.114694 -0.00600656
389 4 94.967 24.5174 102.332 0.000343134 -0.00121715 0.000955738
390 3 95.6212 25.3492 106.328 -0.00104638 0.000577089 0.00086931
391 4 99.655 25.6073 104.63 -0.186163 0.303253 -0.320343
392 1 97.0954 23.95 104.563 0.000978026 0.000285022 0.000604482
393 1 100.025 23.218 106.389 -0.197144 -0.751567 0.142486
394 1 69.2782 30.4789 101.157 0.246126 -0.295116 0.214986
395 3 69.1594 27.7908 101.641 -0.718672 0.00926423 0.860958
396 1 72.0329 28.5901 103.416 -0.000107162 6.93453e-05 -0.000744647
397 1 72.0112 31.072 101.622 0.000778531 7.60403e-05 -0.000734877
398 2 74.5709 27.4626 103.906 -0.000215864 -0.000912763 -0.000125097
399 2 70.3391 29.5948 105.4 0.408122 -0.444296 0.440725
400 2 70.8833 31.5788 103.994 -0.343135 0.269017 -0.093158
401 2 73.4687 28.3509 106.5 -0.00031202 -0.000404126 0.00030185
402 1 73.189 30.6512 105.174 -0.000105504 0.000473543 0.000366442
403 1 74.7823 29.6844 102.57 3.58849e-05 -0.000289491 0.00157003
404 3 76.7798 27.8562 101.44 0.000429927 0.000472965 0.000311944
405 5 77.2803 31.1064 103.365 0.000247193 0.000443206 0.000539684
406 1 79.6557 30.5054 105.206 -0.000244199 0.00019179 0.000272898
407 1 77.5036 28.2625 104.018 -0.000418571 -0.000422772 -8.32461e-06
408 3 75.1605 32.0664 104.185 1.4455e-06 0.000108295 -2.44068e-05
409 3 76.948 31.5499 105.983 0.000450009 -0.000473284 0.00166423
410 2 75.549 29.5143 105.477 7.58019e-05 -0.000395297 0.000739308
411 1 79.1686 29.8901 101.64 -0.000685942 0.000527423 0.000214521
412 1 82.0249 29.1752 101.839 -0.000559354 0.000664361 0.000488603
413 1 80.6977 32.3362 100.603 -0.000118129 0.000216333 -0.000559279
414 3 82.7236 33.3563 98.8779 0.000121635 -3.13442e-05 -0.000477668
415 2 82.3817 28.9612 104.531 -0.000174274 0.000225137 0.000139481
416 1 83.884 31.0566 103.78 -0.00035647 -0.000421729 0.000384924
417 1 82.4394 30.4691 106.705 -4.81217e-05 0.000256808 0.000435665
418 1 84.6344 28.3062 102.807 -0.000408757 0.000257734 -0.000701915
419 1 89.5767 28.9552 103.489 -0.000299803 0.00126731 -0.00017281
420 2 87.3599 28.124 102.239 -0.000175486 0.000919264 0.000465826
421 1 83.5307 31.3801 100.648 -0.000138721 -3.75285e-05 6.77888e-06
422 1 86.9116 30.3861 103.677 -0.000756397 0.000329922 0.00027699
423 1 88.7982 26.2194 104.879 -0.000815923 0.000164021 -8.4809e-06
424 2 86.5499 27.6615 104.706 -0.000714333 0.000579135 -0.000565428
425 4 88.127 29.2004 106.087 0.000727774 0.00075939 -0.000115511
426 2 88.95 32.2192 102.75 -0.00106473 0.000314067 0.000128996
427 3 92.1251 27.9748 102.862 -0.000846994 -7.68181e-05 -0.000250222
428 1 94.3572 29.1747 104.14 -0.00104641 -0.00099753 0.000306062
429 3 90.6245 30.6595 101.721 -0.000286987 0.000438544 -0.000615521
430 1 94.4034 32.1711 103.211 0.000256623 0.000163497 -0.000631332
431 1 91.7659 30.8835 104.104 -0.000660274 0.000260079 -0.00125654
432 1 89.2088 31.9195 105.413 -0.000616024 -7.94669e-05 0.000321541
433 1 91.4865 27.7662 105.547 -0.000273486 0.000773371 -0.000392119
434 3 95.1979 27.3274 102.096 0.000499993 0.000502799 0.0005788
435 1 96.0672 29.9617 101.757 1.00905 -0.210972 0.77073
436 2 98.5278 28.474 103.03 -0.523927 -0.0369828 -0.0749765
437 4 98.7416 31.5665 103.648 0.138221 0.0234199 -0.285701
438 5 96.7991 27.0004 104.424 -0.00080672 -7.07358e-05 0.000202372
439 1 97.1101 29.9437 105.204 -0.000515848 -0.000279657 -0.000514792
440 1 99.5046 28.325 106.139 0.298283 -0.462521 0.0878208
441 3 70.235 33.1312 101.861 -0.793816 -0.844176 0.652445
442 1 72.9646 33.4558 103.966 -0.36869 0.21732 -1.33498
443 1 74.3686 35.9826 105.709 -0.0479136 0.446641 0.337705
444 1 74.55 32.415 101.418 -0.00057284 -0.000369015 0.000193165
445 3 76.4193 33.6672 102.723 0.00043473 0.000880752 6.01708e-05
446 2 77.9537 35.5654 102.687 -0.000312975 2.05047e-05 -0.000340762
447 1 74.5949 35.602 102.936 -0.476392 -0.813009 -0.431326
448 1 79.2841 33.1362 103.279 0.000328045 0.000184965 -0.000293379
449 1 76.8384 34.1522 105.147 0.000993741 -2.69754e-05 -0.00114685
450 1 77.2283 36.9847 105.054 -0.000593986 -9.5217e-05 0.000586419
451 2 79.3943 35.2638 104.842 -0.000427103 2.96248e-05 0.000709095
452 1 79.8418 37.4408 103.41 0.000613467 0.000937894 0.000686824
453 1 80.6072 35.3042 101.567 -9.75547e-05 -0.000591768 -9.29911e-05
454 1 82.9735 33.6932 102.601 -0.00027284 0.000631774 -0.000322807
455 2 83.0988 36.4075 102.396 1.95154e-05 4.06126e-05 -0.000554602
456 3 84.7625 37.5834 104.051 -0.000324985 0.000419129 0.000955753
457 3 81.256 31.3098 103.133 0.000579319 -0.000391271 -0.000543772
458 2 81.6919 35.6683 104.254 0.000155068 -0.000365677 0.000223566
459 1 85.941 37.0539 106.349 0.000557437 -0.0011334 -0.000713195
460 1 84.0118 35.1038 105.403 -0.000609569 0.000715111 7.74595e-05
461 1 81.7688 32.9495 105.248 -0.000208798 0.00028706 0.000881223
462 2 85.9633 32.0942 101.744 -0.000110722 0.000178776 0.000364429
463 1 88.3582 34.731 103.988 -0.000385771 0.00024101 0.000452715
464 1 85.672 35.5983 102.607 -0.00038619 -0.000746064 5.22069e-07
465 2 87.1535 34.3855 106.219 0.0015008 -0.000885617 4.41992e-05
466 1 85.9256 33.1184 104.216 -0.000120978 0.000602067 -0.000196803
467 3 88.5445 36.7269 106.144 0.00105423 -0.000837838 -0.00036181
468 1 90.4896 36.7736 104.331 0.000237405 -0.000687137 -0.000390217
469 3 90.8094 33.5304 103.918 -0.000717234 0.00139737 -0.00088374
470 5 90.0855 35.1599 101.802 0.000228378 0.000372967 4.47443e-05
471 1 92.8599 35.0652 103.339 -0.000749702 0.000832017 0.000497326
472 1 90.1879 34.6243 106.452 -0.000291846 0.000556691 0.000162225