ITEM: TIMESTEP
512
ITEM: NUMBER OF ATOMS
1985
ITEM: BOX BOUNDS ss ss ss
7.0195722853999996e+01 1.1237641714600001e+02
1.8754678130000002e+01 5.7982021869999997e+01
7.1028902376114615e+01 1.1315018025998853e+02
ITEM: ATOMS id type x y z fx fy fz
107 1 75.4445 26.8078 80.0224 -0.67807 -0.541604 1.21387
347 1 73.906 28.2806 83.7702 -0.573453 0.0745412 0.66055
666 1 75.2823 27.1114 89.9655 0.810101 0.428841 0.377449
667 1 75.3679 26.1726 87.0713 0.43075 -0.0770679 1.54736
133 1 74.8693 32.2291 77.813 0.255373 -0.590382 0.123701
23 4 74.4292 36.0718 74.3539 0.444878 -0.0220268 0.32983
176 1 73.5362 37.1427 76.9591 0.325769 -0.361363 -0.456391
175 2 75.0017 34.8164 76.861 1.30578 -0.0150887 -2.21654
131 5 71.6118 30.2144 81.4421 -0.426836 -0.124783 0.955674
136 1 72.9139 32.2351 80.0931 0.590317 -0.552701 -0.0462038
394 1 74.3238 31.6392 82.9015 3.8634e-05 -0.000112133 -0.000251435
389 1 71.6424 33.1918 82.4985 0.141784 -0.608452 0.807166
132 1 75.2224 29.3477 78.3599 0.760626 0.0619636 -0.558972
134 1 74.2043 29.3183 80.9557 0.410589 -0.284448 1.13299
390 1 72.1003 30.466 84.4493 -0.12538 0.184286 0.114323
172 1 71.8268 37.0667 78.9535 -0.917321 -0.162962 1.17127
173 5 70.4896 38.0601 81.0399 -0.0241189 0.337027 1.18492
174 1 73.606 34.632 78.7699 -1.07302 0.578093 0.807977
177 2 74.2155 36.8276 80.1147 -0.000765627 0.00104279 -0.000102303
179 3 72.6618 35.1056 81.1136 0.317148 0.409952 -0.0563877
436 1 72.2553 36.3087 83.3714 0.916497 0.648441 -2.19613
435 1 70.6984 34.4937 84.8718 0.0466086 0.177322 1.49743
442 1 75.2973 36.6402 82.5703 -2.00492e-05 0.000172909 -4.16263e-05
440 1 75.3773 33.9673 81.1789 -0.00075844 -0.00070291 0.00119904
439 2 74.2066 34.3658 83.5484 4.91304e-05 -3.14868e-05 -0.000589256
391 1 73.1921 33.0198 85.5511 -8.1124e-05 -0.000185538 0.000401493
714 2 74.4166 31.5553 87.8098 8.36333e-05 -1.97486e-05 -9.99893e-05
710 4 72.8859 29.2354 89.4636 0.71657 0.396642 0.398606
711 1 73.5441 28.6253 86.8637 -0.145167 -0.0115883 -0.69313
712 4 71.8889 31.3171 87.3267 -0.306546 -0.29203 0.287433
713 1 73.8727 32.3409 90.3753 -0.155208 0.0508078 -0.327185
398 2 74.8053 30.5927 85.5418 -7.77881e-05 -0.00016054 1.90199e-06
772 1 75.1538 34.4472 87.7947 0.000276371 -2.04229e-05 0.000164629
437 3 71.0601 37.4333 85.2196 -0.800554 0.0533539 1.37184
438 1 73.4184 36.0642 86.0142 -3.82019e-05 2.20298e-05 -0.000738406
766 2 72.5652 33.8862 88.0271 -0.336557 0.102839 -0.0620491
767 1 72.2118 34.8053 90.4893 0.317535 0.557474 0.273478
768 3 73.6416 36.5055 88.8224 -7.24976e-05 -8.66337e-05 -6.90376e-05
769 1 70.9555 36.2359 87.6431 1.00385 -0.157417 0.644715
771 1 71.9966 37.8023 90.6421 0.0644215 -0.524739 -0.0563086
770 2 74.9383 34.8786 90.4094 -0.000101127 0.000418435 -0.000613177
1065 4 73.8593 30.281 92.522 0.181251 0.0627198 0.257651
1115 3 72.2158 35.8968 92.9919 0.429927 0.00875424 0.0286629
1120 2 73.2851 38.1565 94.3046 0.309518 -0.940987 0.48957
1114 1 74.1139 33.6697 93.2814 -0.320295 0.370075 -0.607459
1117 1 74.6156 35.6392 95.6862 1.0314 0.385539 -0.448046
1118 1 74.5299 36.7992 92.094 0.000402264 -6.75491e-06 0.000526764
48 4 71.9606 39.5491 75.7378 0.250379 -0.0522594 0.111079
50 4 73.7128 41.527 74.1343 0.106354 0.133708 0.480579
49 1 74.809 38.8895 75.325 -0.500401 0.921269 -0.307168
219 1 74.135 41.0073 77.2191 -0.000247539 -9.5009e-05 0.000133018
258 4 72.326 43.353 76.46 0.462399 -0.398603 0.435462
80 1 75.1877 43.697 76.0228 -0.64745 0.844663 0.521526
259 2 73.2514 45.8356 77.1496 -0.207207 -0.560006 0.673526
215 1 71.1409 41.0096 81.0615 0.385323 0.00982387 1.48138
216 1 72.8803 42.625 79.4916 0.0496819 0.863847 -0.381884
217 5 71.6886 39.9821 78.5101 0.459418 -0.430773 0.0258217
221 1 73.2488 38.8923 81.2659 0.00017514 -0.000913721 -0.000487173
488 1 72.3149 39.371 84.1047 0.0273998 0.603951 -0.24118
489 1 72.1123 42.4357 83.9537 0.2333 -0.604322 -0.296426
218 2 75.2012 38.6007 78.57 0.000263621 -0.000248395 -0.000705072
493 5 74.2821 41.3376 82.5529 0.00030547 -0.000215265 8.53192e-06
220 4 74.9698 40.8797 79.9711 -0.000157115 0.000362148 8.54625e-05
223 2 75.4549 43.1216 78.6403 -6.00833e-06 -0.000155888 9.0576e-05
494 1 75.2487 38.8833 84.4622 -7.58045e-05 -0.000101773 -0.000381298
541 3 74.5278 45.7843 83.1607 1.93994 0.7896 -1.7583
262 1 73.2261 45.644 80.0206 0.939248 -0.227364 -0.296062
532 2 72.714 43.9338 81.9576 0.263547 0.0420982 0.127519
538 1 73.6583 48.1148 81.7998 -0.45337 -1.12157 1.10741
539 1 74.2762 47.8294 84.9478 0.505137 -0.054193 0.473546
261 1 74.6919 47.9439 78.9769 -0.366575 -0.14696 0.825949
533 5 72.8027 45.2488 84.5418 -0.829891 0.0725536 0.949108
537 1 75.3607 43.5502 84.4574 -0.00058355 0.000144479 0.000194257
535 1 75.437 43.9242 81.3544 0.000208656 -0.000652887 -0.000177565
491 1 71.81 41.2728 86.5877 0.0333042 0.513711 0.756813
818 4 70.2003 39.0295 87.2635 0.354357 -0.115873 0.223487
819 1 73.3038 38.7365 87.2047 -9.94458e-05 0.000422327 0.000129955
820 1 72.1738 40.6481 89.7321 0.14022 0.347508 0.176099
490 2 74.3511 41.2143 85.3935 -0.000362121 -9.54862e-05 0.000152953
823 4 74.4814 38.9088 89.9237 -0.000156555 -0.000258792 0.000261323
822 2 74.887 41.7194 90.8656 0.000138893 0.000270784 0.000416654
821 1 74.5792 41.4018 88.0801 0.000208508 -0.000190556 0.000236899
874 1 75.1235 44.1212 89.5401 -0.000273726 -0.000113117 -5.17558e-05
534 5 70.8469 44.0385 85.7582 -0.350693 -0.0892299 1.58534
873 2 73.6714 43.5445 86.5836 0.000342842 -0.000211051 1.0846e-05
875 1 72.2235 43.608 88.9472 0.414339 -0.478089 0.190225
876 1 72.9371 46.0692 87.4509 0.22893 0.140864 0.103744
878 1 73.8257 45.4726 91.76 -0.0465478 -0.278355 1.21257
877 3 74.7028 46.9647 89.9371 0.233363 0.192986 -0.81161
1175 1 72.7552 42.8891 92.5562 0.99146 -0.713031 -0.479824
1171 1 74.1851 40.0678 92.8808 0.322399 0.549336 -0.381966
1172 1 74.5236 41.7206 95.4806 0.300216 -0.142753 0.0669324
1508 3 75.391 40.5967 98.1586 0.635435 0.531927 0.188547
1224 1 74.7603 44.8587 95.2513 -0.230789 -0.739512 0.220589
583 2 74.6051 50.6013 83.3588 0.103061 -0.298259 0.503371
926 3 74.805 48.3287 87.7564 0.211176 -0.506885 0.131396
1 1 80.3283 27.9578 76.2208 0.655225 -0.389425 -0.309449
353 1 79.5975 26.7164 81.7536 -0.000185102 -0.000291518 1.67376e-05
108 3 77.564 25.184 79.6539 0.172515 -0.00516872 0.409016
110 1 79.7382 26.4182 78.8475 0.227989 -0.404706 -0.211868
346 1 77.1322 24.9875 82.3375 2.18072 -0.0652864 -1.99567
348 3 75.9967 27.4364 82.7151 0.998002 0.243339 -1.14627
352 1 75.673 25.5586 84.3902 -0.940044 0.49667 1.8036
111 1 80.3042 23.9642 81.0687 -0.61702 -0.394895 -0.0392761
354 1 80.2152 24.4049 83.9771 1.14393 -0.123421 -1.65624
109 3 77.5403 27.7613 79.3299 0.716573 0.29933 0.0470186
351 1 78.3217 27.7276 84.2372 -4.35378e-06 -2.16184e-06 0.000528832
639 2 79.4775 21.9599 89.0105 0.312298 0.388748 0.188228
328 1 80.2714 22.9583 86.6157 0.445888 -0.608074 -0.325673
350 2 78.4974 25.1478 85.3635 -2.38397 1.42995 0.905472
673 5 76.3312 24.3387 89.7665 -0.31588 0.553626 1.17642
671 1 79.4552 23.842 90.9934 0.608611 -0.684285 -0.0911745
668 1 77.8824 24.2003 87.6631 0.294497 0.127609 -0.194996
669 2 78.4301 26.051 89.6452 9.58895e-05 -9.21801e-05 0.000130987
670 1 78.2378 27.3449 87.2565 0.000355114 0.000194537 -0.00010159
349 3 76.0151 28.2179 85.5434 -0.000101938 -0.000256861 -8.48879e-05
359 2 80.6269 26.3831 86.1348 -0.000141406 -0.000580637 0.000275443
722 1 78.2504 28.4474 90.6949 0.000463879 -2.47822e-05 -0.000198683
992 2 80.2686 23.4508 94.3507 -0.107293 -0.193558 -0.0778216
1021 3 77.2196 27.4628 96.1263 0.317629 0.318606 -0.296653
1022 4 78.7536 25.115 95.5107 -0.876191 0.363746 0.223118
1023 1 78.3581 25.8596 92.5722 -0.51152 0.229199 0.236009
1370 1 79.9915 26.717 98.1059 0.173497 0.230696 0.13647
1020 1 76.1181 28.0565 93.014 0.855617 0.549848 -0.159995
1026 1 79.152 28.0594 94.3039 -0.000270696 -0.000200474 -0.000179262
7 3 76.768 31.3167 76.1944 -0.778975 0.323126 0.709022
8 2 78.3268 30.2157 74.8677 1.20384 -0.392241 -1.06241
9 3 78.5895 33.0285 73.4634 0.770211 -0.720895 -0.214992
140 1 79.1924 32.3642 76.1633 -0.000412237 -0.000456974 0.00011184
137 1 77.8071 28.7317 77.018 -0.34778 0.38295 0.173247
24 5 78.4738 35.6346 72.5827 1.3594 0.91226 -1.20533
25 1 77.4125 34.7897 74.7558 -1.28076 0.226249 2.95996
26 2 76.5994 37.6213 73.93 -0.206647 -1.15622 0.528518
27 1 79.152 37.5065 75.5725 0.00839893 -0.00297295 -0.00461107
181 5 77.2589 33.7687 77.7456 0.00039151 0.00015779 -0.000326517
182 3 78.9808 35.6331 77.6882 -0.00017289 -0.000406696 0.000199486
183 1 76.5965 36.9091 76.7738 -0.00455348 -0.00557639 0.00546012
29 1 80.5259 34.7829 75.4212 0.000122812 0.00130485 -0.000484736
30 3 80.6147 36.8994 73.6121 -0.00223835 0.00141572 0.00392494
400 3 79.9632 29.1877 82.644 -0.000215134 -0.000156029 0.000308361
402 1 79.9774 31.3129 81.0124 -0.000244423 -0.000185399 0.000224876
135 2 75.792 31.4493 80.4294 -0.000296367 8.99356e-05 3.00442e-05
139 1 77.8478 31.0971 78.8262 0.000155749 -9.16792e-05 3.60568e-05
395 1 77.4475 32.0104 82.6935 0.000171048 -0.000476727 6.50559e-05
393 2 76.1902 29.8106 83.6442 -0.00013162 -4.16257e-05 3.00103e-06
392 1 77.4525 29.2528 81.4047 0.000163372 0.000183831 -0.000318236
138 1 80.6702 30.4646 78.0846 0.000191309 -0.000332006 -7.61833e-05
141 3 79.6366 28.8704 79.8701 1.57069e-05 0.000352872 -5.85148e-05
399 2 79.708 31.2006 83.9196 -5.91423e-05 0.000339687 0.000157582
142 1 80.7237 33.6034 78.5673 -0.000170586 1.97754e-05 0.000271348
444 1 78.0515 37.803 84.5001 -0.000124626 0.000133658 4.24868e-05
443 2 77.9995 36.777 81.5892 0.000278826 0.000235021 0.000474197
187 1 80.5236 36.8376 82.5133 0.000118708 -0.000124074 -6.25705e-05
178 1 76.5608 36.0352 79.4654 0.00129944 0.000880417 -0.00383186
180 1 78.4492 33.9612 80.5074 0.00010794 -0.00137999 0.000125053
184 1 78.6961 38.0324 79.1193 -0.000113332 -0.000140876 -0.000175284
441 1 77.8642 34.8985 83.4955 -5.12931e-05 -6.62678e-05 -0.000159989
185 3 80.2193 35.9754 79.9859 -0.000847368 -0.000273613 0.000374032
448 1 80.5885 33.6726 82.8043 0.000397887 7.53709e-05 -0.000139314
730 1 79.9259 32.3892 87.7948 7.23047e-05 -8.25142e-05 -4.26453e-05
396 1 77.7411 30.44 85.7909 0.000254377 0.000286761 0.000285004
397 1 76.1325 32.9687 85.2622 -9.93529e-05 7.2928e-05 -1.17263e-05
715 1 76.1074 30.4077 90.8909 2.06986e-07 0.000361276 -8.92914e-05
716 1 76.0953 29.2801 88.1237 8.76429e-05 0.000688682 -0.000425277
717 2 78.8698 29.9384 88.4281 -2.75711e-05 0.000349516 -0.000280933
719 1 76.9807 32.1705 88.2796 4.33722e-05 6.48976e-05 0.000110857
721 4 76.5039 33.2526 91.2551 7.22208e-05 0.000263219 3.0577e-05
723 3 78.5907 31.5865 90.4603 1.65348e-05 0.000364253 4.06135e-05
452 2 78.9002 33.056 85.3675 -0.000177544 6.5745e-05 0.000653264
401 1 80.5659 29.4699 85.8723 0.000359178 -0.000196094 0.000117659
773 1 78.5647 34.3336 89.726 0.000264074 0.000463947 0.000247733
720 2 80.4385 34.9327 91.5179 -1.32582e-05 0.000447607 0.000734775
778 2 80.5858 35.4748 88.1473 -4.33025e-05 0.000333869 -0.000118118
777 2 79.5038 36.932 89.9642 2.07311e-05 0.000507677 -0.00023356
446 2 75.9055 37.5634 86.8133 -0.000329177 0.000236455 -0.000242528
776 1 78.8721 37.9916 87.4542 -0.000233788 0.000557431 -1.98716e-05
775 1 76.6073 36.7724 89.3629 6.57728e-05 -0.000176548 2.72337e-05
774 1 77.92 35.1746 86.8843 0.000247621 0.000472628 0.000152555
1123 1 77.9601 36.3321 92.0479 -0.000328757 0.00034451 -9.87392e-05
450 1 80.4768 35.4985 85.3836 -0.000669664 -0.000305177 0.000341979
445 2 75.8846 35.7589 85.0955 0.000311275 -0.000245481 0.000244007
1073 1 78.8305 32.9881 92.8481 -1.63592e-05 0.000221502 -0.000189829
1066 3 76.2736 31.8139 93.3801 6.6088e-05 1.75953e-05 2.72356e-05
1067 1 76.5393 30.101 95.3509 0.206064 -0.714695 0.018795
1068 1 76.7714 33.1304 96.0129 0.239411 -0.56352 -0.75812
1069 3 78.2518 30.2108 92.7499 0.000257285 5.17082e-05 -0.00038465
1071 1 79.2138 31.0696 95.1451 -0.000217703 -0.000429291 -4.43928e-05
1407 4 77.1317 29.7236 98.4298 0.266878 0.219967 -0.308363
1409 5 79.2925 31.5204 98.1659 0.000152646 -0.000482227 -0.000476338
1410 3 78.9997 29.0264 97.0069 -0.00013329 -7.3148e-05 -0.000400984
1174 2 76.1043 37.569 94.0469 0.000172368 0.000498217 -0.000359555
1456 1 79.0051 34.425 98.3564 0.000200016 -0.000453664 -0.000368335
1461 3 78.8411 37.0157 98.381 -0.000405484 -0.000269745 0.000867353
1116 4 76.5884 34.7325 93.6965 0.000168777 0.000225703 0.000487779
1459 3 76.4198 36.531 98.1679 -0.0882027 0.138776 -0.0256225
1457 2 76.2049 33.8818 98.3837 0.340841 0.652635 0.291295
1119 1 77.8256 36.0849 95.9397 -0.000465314 -0.00011985 -0.000192191
1121 3 79.3795 33.6515 95.7221 -0.000544828 -0.000433002 -0.00077992
1122 2 79.8015 35.4035 93.9554 -2.22561e-05 0.000518875 -0.00035781
1125 2 80.3893 37.1797 95.6648 0.000332532 0.000569036 6.82361e-06
1408 4 78.9252 31.1043 101.366 0.0870887 0.490507 -0.351443
1411 1 80.2268 28.9839 100.249 0.31629 -0.539643 -0.634442
1460 4 77.4891 35.7236 100.829 0.569533 0.176366 -0.704264
1730 2 79.5779 38.1306 103.167 -0.20088 -0.0112064 0.692389
1458 4 79.845 33.7715 101.566 0.215895 0.048483 -0.425353
1462 1 79.9692 37.2696 100.733 0.000227342 -8.32695e-05 0.00010258
51 1 78.4847 38.682 72.7225 0.59105 0.104767 0.516556
52 1 76.3966 40.5321 73.6752 0.376421 0.400354 -1.41115
53 1 78.2671 42.79 72.9966 0.0150935 1.03756 0.493538
54 1 79.033 41.0186 75.1744 -0.00300632 -0.00157588 0.0005709
55 1 78.0129 43.2101 77.2219 7.17722e-05 0.000284769 -0.000372535
56 3 77.322 39.2542 75.9745 -0.000502276 0.00843929 -0.000664547
222 3 76.431 41.4979 75.9899 0.00158416 -0.00240981 -0.000244928
58 2 79.8361 40.9001 72.2642 0.9392 0.0734465 0.257419
230 2 80.0207 39.5591 77.2762 -0.000121147 0.000320315 0.000292934
257 1 75.6238 46.6588 76.5461 -0.256452 1.16105 0.048333
81 3 75.8016 43.3492 73.5645 0.0980825 -0.0335957 0.0020568
82 1 77.5956 45.5629 75.0876 -0.379007 -1.41713 1.6524
83 5 79.0409 45.7224 73.0854 0.872591 0.525934 -2.77518
84 5 79.5214 47.9968 74.8849 -1.10912 -0.278985 -0.131392
86 2 79.7357 43.7775 75.1802 2.13453e-05 0.000213093 -6.42464e-05
263 2 79.6019 45.4182 77.0876 0.000378369 0.000151171 -7.56854e-05
266 2 78.3982 47.6133 77.0762 0.15855 -1.31697 0.676153
498 4 79.6077 40.7474 84.2713 -0.000403975 -0.000991438 0.000276914
492 5 76.3555 38.9255 81.1775 0.000151503 -0.000454236 -0.000406142
227 4 78.9275 39.373 81.9922 1.64435e-05 -0.000370956 -0.000334195
225 1 77.2921 40.4709 78.275 7.76061e-05 -0.000273723 -0.00175029
495 5 76.9847 41.2933 83.41 -0.000209422 7.8016e-05 0.00014634
224 1 80.0496 40.8253 79.7771 0.00041918 -0.000455292 -4.24286e-05
264 4 77.4896 41.9542 80.7279 0.000127104 -0.000672853 0.000662901
540 1 77.1561 46.0797 84.4748 -0.000163329 0.00013309 -0.000250605
547 5 80.2545 45.8546 84.5077 -0.000306644 0.000130661 0.000252549
260 1 76.7632 45.4458 78.8844 7.42016e-05 -1.98996e-05 0.000127968
267 4 79.146 46.7695 79.7007 3.95311e-06 0.000295353 9.44841e-05
228 4 79.3972 43.8193 79.7602 -0.000481474 -0.000146084 -0.000119337
545 1 78.391 44.2002 82.5521 1.72224e-05 0.000115 9.44378e-05
544 2 78.9809 47.3893 82.7103 -9.79921e-05 -8.89178e-05 0.000379166
542 1 76.4306 46.9234 81.4805 -0.000135007 -4.84193e-05 -8.63129e-05
829 2 80.0106 39.9086 91.9544 7.35606e-05 0.000329256 -3.75236e-06
496 1 77.2628 40.6786 86.2777 0.000353689 -9.29167e-05 0.00030186
500 4 80.3918 40.5484 87.0574 0.000351081 -0.000127997 6.46433e-05
824 1 76.7673 39.089 91.5915 0.000505908 0.000570058 0.000257443
825 2 76.5024 39.3485 88.4618 9.66041e-05 0.000344053 0.000302223
826 3 76.419 43.1478 87.1443 -0.000533788 -0.000198959 0.000311514
827 1 77.3083 41.7573 89.4236 -4.81786e-05 0.000495507 0.000558037
828 3 78.7366 39.3458 89.8088 0.000291853 0.000391888 -0.00038684
830 1 80.4257 41.5026 89.8266 0.000525627 0.000607579 0.00041751
879 1 75.7451 45.7142 86.9859 0.000224685 -0.000186955 3.11612e-05
1229 1 76.8711 45.9117 91.9297 0.00036216 -5.76874e-05 1.35003e-05
886 4 79.6326 46.3281 90.5338 7.48997e-05 0.000207061 -0.000372314
885 1 79.1388 46.2839 87.1199 -2.69565e-05 0.000210405 0.00042705
884 1 77.1807 47.5076 89.2556 0.000271571 -0.000195383 3.09104e-05
883 3 77.1142 48.0083 86.514 0.000327882 -0.000189979 -3.76059e-05
882 2 77.5781 44.882 88.9759 0.000481435 6.42205e-05 -0.000251243
880 1 79.272 43.2841 87.7229 4.7955e-05 -0.000248038 -0.000433474
1228 2 78.6403 43.7993 90.9114 0.000713766 0.000745283 -0.000416664
536 2 78.0555 43.5566 85.2737 -7.86647e-05 0.000394421 0.000260082
1170 1 75.9567 38.7777 96.3805 -0.19586 -0.336851 -0.0698092
1173 3 76.6026 40.4276 94.2944 0.000282711 0.000162847 -8.95962e-05
1176 3 76.9635 42.7748 95.6538 0.000308277 -0.00037105 -2.09372e-05
1177 1 78.0323 41.6373 92.3214 0.000470793 5.66957e-05 0.000560779
1179 1 78.6599 38.5517 93.9732 9.15198e-05 -0.000123171 0.000165014
1180 1 78.835 39.0633 96.8759 0.000299926 -0.000600454 0.000692057
1181 1 79.2157 41.415 95.0148 0.000714571 3.93703e-05 0.000858618
1509 1 78.1448 41.5322 98.1574 6.66518e-05 -0.000112685 -0.000250265
1225 1 75.7857 43.2654 93.0319 -6.33285e-05 1.20494e-05 0.000361685
1234 1 79.1612 44.6263 93.5965 0.000278574 0.000600161 0.000473205
1231 2 78.5421 47.2765 94.5256 0.000424005 0.000283245 1.35725e-05
1235 4 80.2098 46.6697 96.8257 0.000377401 -0.000127571 6.16487e-05
1561 1 77.6384 45.7883 97.989 -0.455643 0.111479 0.19943
1558 1 75.7884 43.3887 98.106 0.865307 0.0205745 -0.596911
1226 3 77.2978 45.2571 95.3727 -0.000253327 -0.000579664 -0.000265295
1227 1 75.8169 47.4049 94.3618 0.79899 0.149837 -0.197027
1563 1 79.3397 43.8793 96.6332 -0.000226836 -0.000313482 -0.000342348
1507 1 77.3798 38.7904 99.8943 0.610393 0.359718 -0.95446
1510 5 77.0125 41.7949 100.648 0.303806 0.201044 0.0131117
1512 2 79.3795 40.5358 101.407 0.00800619 -0.131001 -0.075744
1511 1 79.7803 43.1898 102.491 0.203889 0.19682 -0.570352
1774 5 80.5317 40.8216 104.402 0.820899 0.42482 -0.250693
1515 3 80.059 39.5067 99.198 0.000156505 6.27046e-05 4.57711e-06
1567 4 80.4872 47.7911 99.4659 -0.0181054 0.0765306 -0.0638301
1560 2 77.0632 44.5566 100.766 0.232825 -0.169143 -0.209418
1562 1 79.5329 45.9198 101.222 0.468801 -1.13025 -0.0511386
1559 2 78.9797 43.9624 99.3792 -0.000345013 -0.000154464 6.0699e-05
297 1 78.7864 50.2338 76.4321 1.75874 1.24196 -0.832571
295 3 75.4739 49.6836 81.2109 1.4657 0.185705 -0.392881
296 4 76.6843 51.6698 79.9127 -0.687891 0.286776 0.364902
299 1 76.8956 49.4007 78.0686 -0.966002 -0.00846265 1.82656
300 1 79.2866 51.6468 79.1699 -0.794972 0.374071 1.15956
585 1 77.258 51.5207 82.9538 0.306316 0.676084 -0.954919
303 1 80.6022 49.0035 78.554 -0.000105271 0.000316371 -0.000211556
590 1 80.1782 51.1293 82.9355 0.000222082 -0.000196597 0.000462173
582 1 76.8176 48.9 83.8253 0.000300453 0.000205892 0.000380092
301 1 78.3136 49.4042 80.9564 -0.000143142 -0.000247579 0.000329623
619 2 78.9804 53.6416 84.0231 -0.178618 -0.251679 0.0654705
325 3 79.3008 53.8008 81.1168 0.459127 -1.3091 0.506702
584 4 76.2669 52.862 85.0706 0.23539 0.0997105 0.528407
586 1 75.9821 50.3179 86.4608 0.17097 0.187697 0.00180964
587 5 78.6011 51.1052 85.617 0.000158975 0.000158509 0.00012911
928 1 79.1588 49.402 88.0219 0.000283099 -0.000160306 0.000148614
929 1 76.706 50.315 89.7315 -0.0893998 -0.476879 0.204894
930 2 77.9648 52.0966 88.3558 0.246822 -0.239629 -0.364501
931 1 79.6582 51.0734 90.4991 -5.74466e-05 0.000137384 0.000331381
927 2 75.8855 48.7291 91.8525 -0.649963 -0.337316 0.0685257
543 2 79.2387 48.4785 85.1844 -0.000235616 0.000389026 0.000573001
1278 1 78.4909 48.6696 92.0628 0.000328237 -9.45533e-05 -1.86757e-05
967 1 79.0192 53.9899 86.9399 -1.44266 -1.03103 -0.0476529
968 4 79.3338 53.9744 90.2453 0.0818519 -0.360986 -0.0745892
1277 1 77.5592 50.0133 94.6062 0.996195 -1.10249 0.408737
1280 2 78.1763 51.6763 92.7004 -0.108587 0.507948 -0.488253
1279 1 80.5891 50.5592 93.4055 1.61122e-07 0.000582661 0.000349054
1282 1 80.0215 52.1316 95.735 0.849941 -1.08943 0.196263
1608 3 80.4853 50.2267 98.0584 0.345826 -0.194026 -0.331769
1276 2 78.2469 48.2725 96.8859 -0.281969 0.453298 -0.36221
1286 2 80.5536 49.1669 95.768 0.000486004 -0.000137443 7.57556e-05
1321 5 80.3327 53.5679 93.3112 0.553223 -0.432141 -0.330774
2 1 83.2329 27.4168 75.6619 0.332925 0.788903 0.326689
3 1 85.7646 28.0728 74.6107 0.546924 0.657886 -0.283851
113 1 82.1029 25.5922 77.3642 0.423853 -1.3252 0.799999
329 1 81.9576 22.0105 84.2042 -0.697037 -0.614547 2.30862
331 1 83.5537 22.7206 82.3218 1.88966 0.855328 -1.3723
362 4 84.1807 27.0343 82.1142 7.31992e-05 3.3581e-05 -0.000304872
357 1 81.8116 27.5598 83.9173 5.9404e-06 -0.000196811 9.82895e-05
115 4 84.8307 24.0573 78.6028 0.114408 0.107715 0.217343
116 1 82.7603 25.1262 80.3817 0.137488 0.486267 -0.276999
117 1 84.4465 27.2189 79.1404 -0.000150013 0.000170486 0.000468642
355 2 82.5431 25.1154 83.0673 0.000516861 3.3394e-05 6.08534e-05
112 2 85.5527 24.263 81.5453 -0.617535 0.823023 0.41707
360 1 85.0623 25.1121 84.1445 -0.000946904 0.000143783 0.000308548
114 3 81.8366 27.9604 78.3944 0.000298939 0.000649885 0.000119969
404 2 84.6916 28.5403 84.279 0.000123521 -0.000135348 -0.000185438
330 5 84.1938 20.2186 86.1515 0.74864 -0.293038 -0.385524
332 3 84.8641 22.4964 85.2141 -1.18725 0.524961 0.126435
640 1 82.3535 21.8927 89.804 -0.169962 0.124001 0.251455
641 2 82.8669 21.9024 87.2587 -0.738409 0.97976 -0.494809
642 1 84.3432 23.2913 91.9731 -0.000632517 7.95734e-05 -0.000245335
643 4 84.6598 20.1688 89.4658 -0.0422827 -0.250442 -0.654024
646 1 85.508 22.5394 87.9366 0.00065981 -0.000188534 0.000230509
679 2 82.129 24.3807 90.8469 -2.54517e-05 0.000138895 -0.000269789
356 1 82.7252 24.4841 85.9009 0.000394909 -9.92992e-05 -0.00022892
674 1 80.7945 25.0291 88.5547 0.000459405 7.45494e-05 0.000274878
683 5 85.1508 25.3273 87.148 1.8238e-05 0.000675309 -0.000193725
361 1 83.3666 27.5967 86.6062 -0.000366303 0.000214231 -0.00023329
672 1 80.8893 27.064 91.4575 0.000421424 0.000329456 0.000849909
724 1 80.9578 28.0711 88.5748 -0.000141611 -0.000365606 0.000273921
675 3 83.3688 23.9935 88.5907 -0.000410058 -0.000127385 0.00074935
677 1 83.3802 26.4067 89.5671 -0.000600519 2.69479e-05 0.000269338
676 4 85.6463 27.4221 90.7038 -8.68878e-05 -0.000134641 -0.000203746
682 3 85.9718 27.5864 88.1123 9.60612e-05 0.000547005 0.000125598
991 2 82.4356 21.4297 96.8989 0.473827 0.724872 0.45653
993 1 81.6585 21.8982 92.5876 0.115421 0.151017 0.285007
994 1 84.085 20.0383 92.2255 0.946569 0.980992 -0.515205
997 1 83.1883 20.0589 94.8116 0.503463 0.910309 0.349833
998 3 85.227 21.7486 94.0605 0.000294414 -0.000320368 -8.97294e-06
1000 1 83.0506 23.2973 94.8764 -0.000140156 -5.19593e-06 0.000184216
1347 1 84.709 22.8042 99.0942 0.0487991 0.0211967 -0.102583
996 1 85.6786 20.954 97.1409 -0.00992662 1.08901 -0.34045
1374 3 84.5447 24.0925 96.8382 0.000480433 0.000882945 0.000454875
1024 2 81.6414 25.0651 93.0798 0.000309143 2.25772e-05 8.26907e-06
1025 1 81.3272 25.8857 95.5938 0.000380319 0.000885558 0.000255785
1375 1 85.7323 28.2223 98.7574 0.000566116 0.000887138 -0.000161258
1027 3 82.1799 27.7042 93.822 0.00134261 0.00056359 0.00063887
678 4 84.1577 26.0999 92.9156 -2.49355e-05 -3.28842e-05 -0.000142324
1031 1 83.9053 27.0194 95.987 -0.000942163 0.000128765 0.000721619
1367 1 81.722 24.035 97.8133 0.863594 0.155926 0.0207087
1371 2 83.7133 25.6959 98.5522 -0.000570304 0.000799535 0.000691882
1074 1 82.6199 28.0621 98.6976 0.000197484 0.000590152 0.000955635
1368 2 83.481 24.3411 100.772 -0.369288 0.252936 0.414953
1369 1 81.9816 26.4738 101.191 0.514904 1.18513 -0.823549
1662 1 85.05 27.117 102.85 0.546913 -0.102347 -0.115212
1372 1 85.8809 25.4839 100.208 -0.000150054 0.000270671 6.6756e-05
1412 2 84.0027 28.5045 100.88 0.000566607 0.000698697 0.000608232
10 3 80.9633 30.3521 75.4751 -0.531048 -0.42222 -0.196842
11 1 83.4682 30.2683 74.8407 -0.564672 0.543235 1.74796
12 1 81.1159 32.1646 73.5915 0.508906 -0.067457 0.52119
13 3 84.31 29.8351 72.5954 0.945305 -0.453588 -0.788055
14 1 84.3224 32.4499 73.2319 0.567156 0.45086 -0.186432
145 2 81.9559 32.3611 76.3715 -5.87434e-05 -0.000219717 5.52024e-06
146 1 84.2497 32.5784 77.6116 0.000751745 0.00029223 -0.000266615
151 2 85.7118 28.6552 77.2131 -0.000118201 0.000324255 -3.6437e-05
36 2 85.6587 33.258 75.5765 -0.000128789 0.000102187 0.000341318
17 2 85.8155 30.7572 75.8744 6.88922e-05 -0.000358818 2.38857e-05
144 1 83.5263 29.8395 77.8781 -0.000216076 -0.000699118 0.000142253
190 1 81.3177 37.0014 77.6597 -0.00029904 -0.000501909 0.000269227
34 1 85.233 35.3785 73.6416 -1.01834 0.0480997 0.107426
28 2 83.2057 33.9715 75.0591 0.000275646 0.000586812 -1.62141e-05
188 3 82.7311 34.8231 77.3706 0.000138366 0.000260045 3.32047e-05
31 1 81.7863 34.8223 72.643 0.19327 -0.623688 0.605457
32 1 82.8808 36.6935 75.1016 -0.000261098 0.000123421 0.000254636
33 4 82.9813 36.7337 71.2693 0.65673 0.202479 -0.0876987
35 4 85.7305 37.7225 71.7432 0.570326 -0.254429 0.126357
189 1 85.1865 35.7031 76.7725 0.00039493 -0.000261214 -0.000134176
143 1 82.3731 30.5927 83.0283 7.43294e-05 -8.36062e-05 -0.000174991
149 1 85.7521 32.3204 80.6693 -0.000242216 0.000288696 0.000109986
405 2 85.1126 30.7537 82.976 0.000132892 0.000143345 0.000544088
147 2 84.8658 29.6394 80.6261 5.38381e-05 -6.64835e-06 0.000567854
148 1 82.8146 31.834 80.191 0.000197001 -8.2439e-05 -7.97877e-06
454 1 83.7736 33.3631 82.7809 5.56401e-05 0.000232578 -0.000300167
358 1 82.1076 28.5794 80.8776 0.000509961 -0.000374404 0.000163719
195 3 85.8395 34.9249 81.7147 0.000330568 0.000110453 0.000498742
193 1 83.6318 36.7321 81.4456 0.0005552 0.000167878 -8.81287e-05
451 4 83.5143 38.0013 84.3086 0.000223701 0.000168459 -2.71453e-05
457 1 85.316 35.6419 84.3308 -9.39746e-05 -0.000444262 -2.74112e-05
192 3 83.8537 37.212 78.6449 0.000242067 0.000108182 4.57924e-05
447 3 82.5469 35.5397 83.5578 0.000452852 -0.000229668 -8.60096e-05
186 3 82.0649 34.5616 80.7916 9.01608e-05 0.000697073 -0.000319441
191 5 84.3439 34.7135 79.5326 8.59325e-05 -6.31455e-07 -0.000150198
718 5 83.3173 28.8247 91.7518 5.57034e-05 0.000441649 6.0072e-05
731 2 81.0571 32.9166 90.2826 0.000531071 0.000248454 0.000513305
725 2 83.9275 29.0194 89.1643 0.000644719 0.000112615 -0.000490162
726 5 82.3338 30.7109 87.9315 0.000465294 0.000160818 -0.000461628
727 4 83.4786 31.3268 90.4491 0.000429854 0.000358539 -0.000551927
728 1 80.8037 30.203 90.7514 0.000154765 0.00100705 3.96793e-06
729 1 85.5405 32.725 88.7742 -0.000502507 0.000497392 -2.76466e-06
460 1 84.838 32.5961 85.6054 -0.000208543 0.000371585 -0.000198057
408 1 85.3424 30.0175 87.0828 -0.000427289 -0.000404232 0.000617625
403 1 81.7437 32.5199 85.3653 0.000200838 8.49509e-05 5.90632e-05
409 3 83.2267 30.1917 85.4796 0.000114873 0.000296495 -1.73616e-05
732 4 84.0152 33.6934 91.444 0.000194906 -9.7015e-05 0.00014787
780 4 82.761 37.0257 87.1243 0.000188406 -8.40966e-05 0.000585432
783 2 83.6447 37.7639 91.7791 0.000663988 0.00012872 -2.43397e-05
781 1 84.7517 38.1865 89.3102 0.000200163 0.000195901 -0.000123984
449 2 83.162 34.8226 85.7783 3.70626e-05 -9.76772e-05 -0.00029203
453 1 82.7512 33.6242 88.1475 0.000494692 -6.90535e-05 -0.000298496
455 5 85.2755 35.4318 87.4261 0.000107912 0.00029522 0.000171944
779 1 82.6261 35.8793 90.0694 0.000301732 0.000141977 0.000325212
835 5 85.5317 38.2196 86.4837 9.60456e-05 0.000212655 -0.000145015
782 1 86.0108 35.4529 90.3096 0.000374234 0.000226559 1.00004e-05
1072 1 81.8302 31.9238 96.21 3.0165e-05 5.26412e-05 -1.14119e-05
1075 1 81.4485 28.9728 96.1317 -4.41158e-05 -5.12389e-05 0.000236392
1076 1 81.6709 32.4008 93.0519 -0.000108894 -0.000161447 2.16017e-05
1077 1 83.6656 30.2514 94.287 0.000477862 -0.000295072 5.65997e-05
1078 2 83.9402 30.03 97.0903 0.000699818 0.000503895 0.000231124
1413 3 81.7358 30.594 98.577 0.000224425 0.000897072 0.000458826
1423 1 84.5233 32.8072 97.2951 2.647e-05 0.000694909 0.00040024
1416 1 81.8457 33.3618 99.0708 0.000244014 0.000104684 -3.63834e-06
1128 5 84.1066 33.4291 94.4393 -7.53866e-05 0.00016712 0.000224869
1070 3 80.9662 29.8219 93.3907 0.000446564 -4.46491e-05 -0.000555483
733 2 85.4924 31.5532 92.1278 -2.3152e-05 0.000100454 -0.000159671
1131 1 85.285 36.2068 93.2054 -0.000102165 -8.76067e-05 0.000430806
1469 1 84.1538 37.9398 97.828 8.37727e-05 0.000515683 0.000202956
1133 2 84.321 35.4745 96.5947 -0.000644374 0.000354277 0.0010429
1124 1 81.7283 34.8019 96.0051 8.54365e-05 -3.08593e-05 -0.000142385
1186 3 85.686 37.4377 95.562 -0.000481993 -0.000297961 0.000619042
1464 1 81.5444 36.5455 98.3662 -0.000189094 0.000588597 -0.000169525
1127 5 82.4642 35.2519 93.1446 -0.000435894 0.000266543 0.000301049
1130 1 83.0143 37.3893 95.0074 -7.44659e-05 -0.000345863 0.000459713
1126 1 80.9802 37.5189 92.3332 0.000272845 0.000245131 0.000131065
1414 1 81.8753 31.1195 101.363 0.000137132 -0.000492799 -0.000292618
1417 4 83.9372 33.0839 101.625 0.000366116 1.12717e-06 0.000797538
1689 1 85.309 30.2103 102.649 0.00124268 -0.00012894 0.000450939
1691 4 81.2406 31.6977 104.013 0.755041 0.394575 -0.0957249
1692 2 82.5243 28.9261 102.969 0.231339 0.128806 -0.266877
1693 1 84.3277 31.07 105.267 0.440405 0.260553 -0.396842
1415 1 84.2711 30.9765 99.6395 0.000330978 0.000802321 0.0010141
1697 1 85.9318 33.122 103.8 0.000336631 -0.000314597 0.000798127
1466 1 84.4929 35.1352 99.3616 6.07056e-05 -2.55572e-05 0.000533376
1732 5 83.4056 34.4173 104.094 1.40246e-05 -0.000104337 0.000310745
1736 4 85.7933 37.6998 100.506 -0.000389624 0.000429485 7.78139e-05
1731 4 80.8446 35.0474 104.323 0.307057 0.376862 -0.375632
1734 1 83.9529 37.4128 103.553 -0.000689501 0.000227436 -0.000174779
1463 4 82.103 35.3846 101.665 4.24603e-05 -0.000317547 0.000135641
1465 2 83.1272 37.5437 100.548 -0.000348887 -4.40757e-05 -0.000240063
1467 4 85.399 35.4578 102.152 0.000463257 -0.00022129 0.00081731
1694 3 82.9744 33.1203 106.242 -0.0345121 0.0249242 -0.0490519
1695 2 85.57 33.4369 106.586 -0.140689 0.226351 0.0648398
1733 1 83.7992 35.7104 106.63 0.374893 0.9316 -0.413726
57 5 80.9936 38.466 71.7283 0.950245 0.609336 -0.368864
59 3 83.6845 43.1216 73.8135 -0.000316069 -0.000228535 0.000266259
60 1 82.6245 41.0872 72.4511 -0.809041 -0.151252 0.770433
61 1 81.4678 39.3757 74.7486 -0.000115318 -0.00105902 0.000149049