LAMMPS (2 Aug 2023)
WARNING: Using I/O redirection is unreliable with parallel runs. Better to use the -in switch to read input files. (src/lammps.cpp:537)
OMP_NUM_THREADS environment is not set. Defaulting to 1 thread. (src/comm.cpp:98)
  using 1 OpenMP thread(s) per MPI task

            dimension 3
            units metal
            boundary s s s
            atom_style atomic
            timestep 0.001
            region myregion block 68.20034 114.37180000000001 16.759 59.9777 69.0335135816619 115.14556905444125  units box
            create_box 5 myregion
Created orthogonal box = (68.20034 16.759 69.033514) to (114.3718 59.9777 115.14557)
  8 by 4 by 6 MPI processor grid
            mass 1 91.224
            mass 2 63.546
            mass 3 58.693
            mass 4 26.982
            mass 5 47.867 
            pair_style eam/alloy
            pair_coeff * * ZrTiCuNiAl_Zhou04.eam.alloy Zr Cu Ni Al Ti
Reading eam/alloy potential file ZrTiCuNiAl_Zhou04.eam.alloy with DATE: 2018-03-30
            create_atoms 1 single 80.3283 27.9578 76.22078853868196
Created 1 atoms
  using lattice units in orthogonal box = (68.195723 16.754678 69.028902) to (114.37642 59.982022 115.15018)
  create_atoms CPU = 0.000 seconds
create_atoms 1 single 83.23294 27.4168 75.66191770773638
Created 1 atoms
  using lattice units in orthogonal box = (68.195723 16.754678 69.028902) to (114.37642 59.982022 115.15018)
  create_atoms CPU = 0.000 seconds
create_atoms 1 single 85.76458 28.0728 74.61065203438395
Created 1 atoms
  using lattice units in orthogonal box = (68.195723 16.754678 69.028902) to (114.37642 59.982022 115.15018)
  create_atoms CPU = 0.000 seconds
create_atoms 2 single 88.32672000000001 27.8478 73.96801501432665
Created 1 atoms
  using lattice units in orthogonal box = (68.195723 16.754678 69.028902) to (114.37642 59.982022 115.15018)
  create_atoms CPU = 0.000 seconds
create_atoms 1 single 88.82116 25.8319 76.26954475644699
Created 1 atoms
  using lattice units in orthogonal box = (68.195723 16.754678 69.028902) to (114.37642 59.982022 115.15018)
  create_atoms CPU = 0.000 seconds
create_atoms 2 single 91.15168 27.4889 75.92835862464183
Created 1 atoms
  using lattice units in orthogonal box = (68.195723 16.754678 69.028902) to (114.37642 59.982022 115.15018)
  create_atoms CPU = 0.000 seconds
create_atoms 3 single 76.76796 31.3167 76.1943699713467
Created 1 atoms
  using lattice units in orthogonal box = (68.195723 16.754678 69.028902) to (114.37642 59.982022 115.15018)
  create_atoms CPU = 0.000 seconds
create_atoms 2 single 78.32684 30.2157 74.86774979942693
Created 1 atoms
  using lattice units in orthogonal box = (68.195723 16.754678 69.028902) to (114.37642 59.982022 115.15018)
  create_atoms CPU = 0.000 seconds
create_atoms 3 single 78.58946 33.0285 73.46337742120345
Created 1 atoms
  using lattice units in orthogonal box = (68.195723 16.754678 69.028902) to (114.37642 59.982022 115.15018)
  create_atoms CPU = 0.000 seconds
create_atoms 3 single 80.96334 30.3521 75.47505467048711
Created 1 atoms
  using lattice units in orthogonal box = (68.195723 16.754678 69.028902) to (114.37642 59.982022 115.15018)
  create_atoms CPU = 0.000 seconds
create_atoms 1 single 83.46816 30.2683 74.84068687679084
Created 1 atoms
  using lattice units in orthogonal box = (68.195723 16.754678 69.028902) to (114.37642 59.982022 115.15018)
  create_atoms CPU = 0.000 seconds
create_atoms 1 single 81.11588 32.1646 73.59149673352435
Created 1 atoms
  using lattice units in orthogonal box = (68.195723 16.754678 69.028902) to (114.37642 59.982022 115.15018)
  create_atoms CPU = 0.000 seconds
create_atoms 3 single 84.30998 29.8351 72.59543083094556
Created 1 atoms
  using lattice units in orthogonal box = (68.195723 16.754678 69.028902) to (114.37642 59.982022 115.15018)
  create_atoms CPU = 0.000 seconds
create_atoms 1 single 84.32236 32.4499 73.23194647564469
Created 1 atoms
  using lattice units in orthogonal box = (68.195723 16.754678 69.028902) to (114.37642 59.982022 115.15018)
  create_atoms CPU = 0.000 seconds
create_atoms 1 single 87.14064 30.535 73.43674406876791
Created 1 atoms
  using lattice units in orthogonal box = (68.195723 16.754678 69.028902) to (114.37642 59.982022 115.15018)
  create_atoms CPU = 0.000 seconds
create_atoms 3 single 87.05856 33.2428 73.7286370200573
Created 1 atoms
  using lattice units in orthogonal box = (68.195723 16.754678 69.028902) to (114.37642 59.982022 115.15018)
  create_atoms CPU = 0.000 seconds
create_atoms 2 single 86.34262000000001 30.8024 75.65193020057306
Created 1 atoms
  using lattice units in orthogonal box = (68.195723 16.754678 69.028902) to (114.37642 59.982022 115.15018)
  create_atoms CPU = 0.000 seconds
create_atoms 1 single 88.8896 32.0486 76.19769914040114
Created 1 atoms
  using lattice units in orthogonal box = (68.195723 16.754678 69.028902) to (114.37642 59.982022 115.15018)
  create_atoms CPU = 0.000 seconds
create_atoms 1 single 90.35430000000001 30.0396 74.77528481375359
Created 1 atoms
  using lattice units in orthogonal box = (68.195723 16.754678 69.028902) to (114.37642 59.982022 115.15018)
  create_atoms CPU = 0.000 seconds
create_atoms 1 single 93.06264 31.6316 74.46126899713467
Created 1 atoms
  using lattice units in orthogonal box = (68.195723 16.754678 69.028902) to (114.37642 59.982022 115.15018)
  create_atoms CPU = 0.000 seconds
create_atoms 1 single 89.7608 32.9053 73.61114957020057
Created 1 atoms
  using lattice units in orthogonal box = (68.195723 16.754678 69.028902) to (114.37642 59.982022 115.15018)
  create_atoms CPU = 0.000 seconds
create_atoms 1 single 95.59882 33.4065 74.86903851002864
Created 1 atoms
  using lattice units in orthogonal box = (68.195723 16.754678 69.028902) to (114.37642 59.982022 115.15018)
  create_atoms CPU = 0.000 seconds
create_atoms 4 single 74.42924000000001 36.0718 74.3538764469914
Created 1 atoms
  using lattice units in orthogonal box = (68.195723 16.754678 69.028902) to (114.37642 59.982022 115.15018)
  create_atoms CPU = 0.000 seconds
create_atoms 5 single 78.47382 35.6346 72.5826511174785
Created 1 atoms
  using lattice units in orthogonal box = (68.195723 16.754678 69.028902) to (114.37642 59.982022 115.15018)
  create_atoms CPU = 0.000 seconds
create_atoms 1 single 77.41246 34.7897 74.75584676217764
Created 1 atoms
  using lattice units in orthogonal box = (68.195723 16.754678 69.028902) to (114.37642 59.982022 115.15018)
  create_atoms CPU = 0.000 seconds
create_atoms 2 single 76.59936 37.6213 73.92999805157594
Created 1 atoms
  using lattice units in orthogonal box = (68.195723 16.754678 69.028902) to (114.37642 59.982022 115.15018)
  create_atoms CPU = 0.000 seconds
create_atoms 1 single 79.51388 37.3655 75.6018852722063
Created 1 atoms
  using lattice units in orthogonal box = (68.195723 16.754678 69.028902) to (114.37642 59.982022 115.15018)
  create_atoms CPU = 0.000 seconds
create_atoms 2 single 83.48258 33.6035 75.21151335243553
Created 1 atoms
  using lattice units in orthogonal box = (68.195723 16.754678 69.028902) to (114.37642 59.982022 115.15018)
  create_atoms CPU = 0.000 seconds
create_atoms 1 single 80.93531999999999 34.6329 75.3249198853868
Created 1 atoms
  using lattice units in orthogonal box = (68.195723 16.754678 69.028902) to (114.37642 59.982022 115.15018)
  create_atoms CPU = 0.000 seconds
create_atoms 3 single 80.8081 36.8803 73.7367988538682
Created 1 atoms
  using lattice units in orthogonal box = (68.195723 16.754678 69.028902) to (114.37642 59.982022 115.15018)
  create_atoms CPU = 0.000 seconds
create_atoms 1 single 81.7863 34.8223 72.64300573065903
Created 1 atoms
  using lattice units in orthogonal box = (68.195723 16.754678 69.028902) to (114.37642 59.982022 115.15018)
  create_atoms CPU = 0.000 seconds
create_atoms 1 single 83.57248 36.4868 75.2861511747851
Created 1 atoms
  using lattice units in orthogonal box = (68.195723 16.754678 69.028902) to (114.37642 59.982022 115.15018)
  create_atoms CPU = 0.000 seconds
create_atoms 4 single 82.98125999999999 36.7337 71.2693476217765
Created 1 atoms
  using lattice units in orthogonal box = (68.195723 16.754678 69.028902) to (114.37642 59.982022 115.15018)
  create_atoms CPU = 0.000 seconds
create_atoms 1 single 85.23296 35.3785 73.64164905444126
Created 1 atoms
  using lattice units in orthogonal box = (68.195723 16.754678 69.028902) to (114.37642 59.982022 115.15018)
  create_atoms CPU = 0.000 seconds
create_atoms 4 single 85.73053999999999 37.7225 71.74316355300859
Created 1 atoms
  using lattice units in orthogonal box = (68.195723 16.754678 69.028902) to (114.37642 59.982022 115.15018)
  create_atoms CPU = 0.000 seconds
create_atoms 2 single 86.13436 33.5034 75.85125077363898
Created 1 atoms
  using lattice units in orthogonal box = (68.195723 16.754678 69.028902) to (114.37642 59.982022 115.15018)
  create_atoms CPU = 0.000 seconds
create_atoms 4 single 87.31158 37.7329 74.69012252148997
Created 1 atoms
  using lattice units in orthogonal box = (68.195723 16.754678 69.028902) to (114.37642 59.982022 115.15018)
  create_atoms CPU = 0.000 seconds
create_atoms 1 single 87.90554 35.5437 72.74459908309456
Created 1 atoms
  using lattice units in orthogonal box = (68.195723 16.754678 69.028902) to (114.37642 59.982022 115.15018)
  create_atoms CPU = 0.000 seconds
create_atoms 1 single 88.39848 35.0831 75.85855346704871
Created 1 atoms
  using lattice units in orthogonal box = (68.195723 16.754678 69.028902) to (114.37642 59.982022 115.15018)
  create_atoms CPU = 0.000 seconds
create_atoms 4 single 90.40894 36.6066 72.02667988538683
Created 1 atoms
  using lattice units in orthogonal box = (68.195723 16.754678 69.028902) to (114.37642 59.982022 115.15018)
  create_atoms CPU = 0.000 seconds
create_atoms 3 single 93.50708 34.2512 75.87681020057306
Created 1 atoms
  using lattice units in orthogonal box = (68.195723 16.754678 69.028902) to (114.37642 59.982022 115.15018)
  create_atoms CPU = 0.000 seconds
create_atoms 1 single 92.31086 34.2668 73.01984618911175
Created 1 atoms
  using lattice units in orthogonal box = (68.195723 16.754678 69.028902) to (114.37642 59.982022 115.15018)
  create_atoms CPU = 0.000 seconds
create_atoms 1 single 90.99872 35.5101 75.05267977077365
Created 1 atoms
  using lattice units in orthogonal box = (68.195723 16.754678 69.028902) to (114.37642 59.982022 115.15018)
  create_atoms CPU = 0.000 seconds
create_atoms 1 single 93.89016 36.6853 74.70107656160458
Created 1 atoms
  using lattice units in orthogonal box = (68.195723 16.754678 69.028902) to (114.37642 59.982022 115.15018)
  create_atoms CPU = 0.000 seconds
create_atoms 4 single 89.85276 38.1028 74.01107942693409
Created 1 atoms
  using lattice units in orthogonal box = (68.195723 16.754678 69.028902) to (114.37642 59.982022 115.15018)
  create_atoms CPU = 0.000 seconds
create_atoms 2 single 97.11166 37.1609 75.85178773638968
Created 1 atoms
  using lattice units in orthogonal box = (68.195723 16.754678 69.028902) to (114.37642 59.982022 115.15018)
  create_atoms CPU = 0.000 seconds
create_atoms 1 single 98.56392 34.6253 76.2248694555874
Created 1 atoms
  using lattice units in orthogonal box = (68.195723 16.754678 69.028902) to (114.37642 59.982022 115.15018)
  create_atoms CPU = 0.000 seconds
create_atoms 4 single 71.96062 39.5491 75.73784424068768
Created 1 atoms
  using lattice units in orthogonal box = (68.195723 16.754678 69.028902) to (114.37642 59.982022 115.15018)
  create_atoms CPU = 0.000 seconds
create_atoms 1 single 74.80896 38.8895 75.32502727793695
Created 1 atoms
  using lattice units in orthogonal box = (68.195723 16.754678 69.028902) to (114.37642 59.982022 115.15018)
  create_atoms CPU = 0.000 seconds
create_atoms 4 single 73.71284 41.527 74.13425868194842
Created 1 atoms
  using lattice units in orthogonal box = (68.195723 16.754678 69.028902) to (114.37642 59.982022 115.15018)
  create_atoms CPU = 0.000 seconds
create_atoms 1 single 78.4847 38.682 72.72247621776503
Created 1 atoms
  using lattice units in orthogonal box = (68.195723 16.754678 69.028902) to (114.37642 59.982022 115.15018)
  create_atoms CPU = 0.000 seconds
create_atoms 1 single 76.39664 40.5321 73.67515553008596
Created 1 atoms
  using lattice units in orthogonal box = (68.195723 16.754678 69.028902) to (114.37642 59.982022 115.15018)
  create_atoms CPU = 0.000 seconds
create_atoms 1 single 78.26712 42.79 72.99664939828081
Created 1 atoms
  using lattice units in orthogonal box = (68.195723 16.754678 69.028902) to (114.37642 59.982022 115.15018)
  create_atoms CPU = 0.000 seconds
create_atoms 1 single 79.5764 40.5537 75.26606876790831
Created 1 atoms
  using lattice units in orthogonal box = (68.195723 16.754678 69.028902) to (114.37642 59.982022 115.15018)
  create_atoms CPU = 0.000 seconds
create_atoms 1 single 78.07958 42.7909 75.95305891117478
Created 1 atoms
  using lattice units in orthogonal box = (68.195723 16.754678 69.028902) to (114.37642 59.982022 115.15018)
  create_atoms CPU = 0.000 seconds
create_atoms 3 single 77.79334 39.1275 76.20747186246419
Created 1 atoms
  using lattice units in orthogonal box = (68.195723 16.754678 69.028902) to (114.37642 59.982022 115.15018)
  create_atoms CPU = 0.000 seconds
create_atoms 5 single 80.99362 38.466 71.72834338108883
Created 1 atoms
  using lattice units in orthogonal box = (68.195723 16.754678 69.028902) to (114.37642 59.982022 115.15018)
  create_atoms CPU = 0.000 seconds
create_atoms 2 single 79.83612000000001 40.9001 72.26423220630372
Created 1 atoms
  using lattice units in orthogonal box = (68.195723 16.754678 69.028902) to (114.37642 59.982022 115.15018)
  create_atoms CPU = 0.000 seconds
create_atoms 3 single 84.00644000000001 43.2042 74.09774521489972
Created 1 atoms
  using lattice units in orthogonal box = (68.195723 16.754678 69.028902) to (114.37642 59.982022 115.15018)
  create_atoms CPU = 0.000 seconds
create_atoms 1 single 82.62452 41.0872 72.45109524355301
Created 1 atoms
  using lattice units in orthogonal box = (68.195723 16.754678 69.028902) to (114.37642 59.982022 115.15018)
  create_atoms CPU = 0.000 seconds
create_atoms 1 single 81.90164 39.2016 74.73350911174785
Created 1 atoms
  using lattice units in orthogonal box = (68.195723 16.754678 69.028902) to (114.37642 59.982022 115.15018)
  create_atoms CPU = 0.000 seconds
create_atoms 3 single 81.5326 41.9469 74.4933793696275
Created 1 atoms
  using lattice units in orthogonal box = (68.195723 16.754678 69.028902) to (114.37642 59.982022 115.15018)
  create_atoms CPU = 0.000 seconds
create_atoms 2 single 84.01706 41.0639 75.31428802292264
Created 1 atoms
  using lattice units in orthogonal box = (68.195723 16.754678 69.028902) to (114.37642 59.982022 115.15018)
  create_atoms CPU = 0.000 seconds
create_atoms 4 single 84.26952 38.6074 73.51481845272207
Created 1 atoms
  using lattice units in orthogonal box = (68.195723 16.754678 69.028902) to (114.37642 59.982022 115.15018)
  create_atoms CPU = 0.000 seconds
create_atoms 4 single 86.22785999999999 39.4083 76.21316366762177
Created 1 atoms
  using lattice units in orthogonal box = (68.195723 16.754678 69.028902) to (114.37642 59.982022 115.15018)
  create_atoms CPU = 0.000 seconds
create_atoms 4 single 84.88554 41.0732 71.13102601719197
Created 1 atoms
  using lattice units in orthogonal box = (68.195723 16.754678 69.028902) to (114.37642 59.982022 115.15018)
  create_atoms CPU = 0.000 seconds
create_atoms 1 single 87.9749 42.5969 71.93314097421204
Created 1 atoms
  using lattice units in orthogonal box = (68.195723 16.754678 69.028902) to (114.37642 59.982022 115.15018)
  create_atoms CPU = 0.000 seconds
create_atoms 1 single 86.07672000000001 41.3441 74.10547747851002
Created 1 atoms
  using lattice units in orthogonal box = (68.195723 16.754678 69.028902) to (114.37642 59.982022 115.15018)
  create_atoms CPU = 0.000 seconds
create_atoms 4 single 87.7431 39.7797 72.46043839541547
Created 1 atoms
  using lattice units in orthogonal box = (68.195723 16.754678 69.028902) to (114.37642 59.982022 115.15018)
  create_atoms CPU = 0.000 seconds
create_atoms 1 single 88.87684 42.876 75.10992
Created 1 atoms
  using lattice units in orthogonal box = (68.195723 16.754678 69.028902) to (114.37642 59.982022 115.15018)
  create_atoms CPU = 0.000 seconds
create_atoms 4 single 89.1152 39.9309 75.69886074498567
Created 1 atoms
  using lattice units in orthogonal box = (68.195723 16.754678 69.028902) to (114.37642 59.982022 115.15018)
  create_atoms CPU = 0.000 seconds
create_atoms 4 single 90.12052 40.8507 71.0335135816619
Created 1 atoms
  using lattice units in orthogonal box = (68.195723 16.754678 69.028902) to (114.37642 59.982022 115.15018)
  create_atoms CPU = 0.000 seconds
create_atoms 1 single 90.7402 41.115 73.98433868194842
Created 1 atoms
  using lattice units in orthogonal box = (68.195723 16.754678 69.028902) to (114.37642 59.982022 115.15018)
  create_atoms CPU = 0.000 seconds
create_atoms 5 single 92.23264 38.9926 73.11832515759312
Created 1 atoms
  using lattice units in orthogonal box = (68.195723 16.754678 69.028902) to (114.37642 59.982022 115.15018)
  create_atoms CPU = 0.000 seconds
create_atoms 1 single 93.30328 41.7899 73.0008377077364
Created 1 atoms
  using lattice units in orthogonal box = (68.195723 16.754678 69.028902) to (114.37642 59.982022 115.15018)
  create_atoms CPU = 0.000 seconds
create_atoms 4 single 92.33478000000001 38.8857 76.2231511747851
Created 1 atoms
  using lattice units in orthogonal box = (68.195723 16.754678 69.028902) to (114.37642 59.982022 115.15018)
  create_atoms CPU = 0.000 seconds
create_atoms 1 single 93.9425 41.2555 76.04359083094556
Created 1 atoms
  using lattice units in orthogonal box = (68.195723 16.754678 69.028902) to (114.37642 59.982022 115.15018)
  create_atoms CPU = 0.000 seconds
create_atoms 1 single 95.3602 39.4288 74.39726303724927
Created 1 atoms
  using lattice units in orthogonal box = (68.195723 16.754678 69.028902) to (114.37642 59.982022 115.15018)
  create_atoms CPU = 0.000 seconds
create_atoms 5 single 96.46256 42.1786 75.32824905444126
Created 1 atoms
  using lattice units in orthogonal box = (68.195723 16.754678 69.028902) to (114.37642 59.982022 115.15018)
  create_atoms CPU = 0.000 seconds
create_atoms 1 single 75.18773999999999 43.697 76.02275667621775
Created 1 atoms
  using lattice units in orthogonal box = (68.195723 16.754678 69.028902) to (114.37642 59.982022 115.15018)
  create_atoms CPU = 0.000 seconds
create_atoms 3 single 75.80164 43.3492 73.5645412034384
Created 1 atoms
  using lattice units in orthogonal box = (68.195723 16.754678 69.028902) to (114.37642 59.982022 115.15018)
  create_atoms CPU = 0.000 seconds
create_atoms 1 single 77.59562000000001 45.5629 75.0875823495702
Created 1 atoms
  using lattice units in orthogonal box = (68.195723 16.754678 69.028902) to (114.37642 59.982022 115.15018)
  create_atoms CPU = 0.000 seconds
create_atoms 5 single 79.04086 45.7224 73.08535564469913
Created 1 atoms
  using lattice units in orthogonal box = (68.195723 16.754678 69.028902) to (114.37642 59.982022 115.15018)
  create_atoms CPU = 0.000 seconds
create_atoms 5 single 79.52144 47.9968 74.88493260744985
Created 1 atoms
  using lattice units in orthogonal box = (68.195723 16.754678 69.028902) to (114.37642 59.982022 115.15018)
  create_atoms CPU = 0.000 seconds
create_atoms 4 single 83.07128 43.6221 71.18375575931232
Created 1 atoms
  using lattice units in orthogonal box = (68.195723 16.754678 69.028902) to (114.37642 59.982022 115.15018)
  create_atoms CPU = 0.000 seconds
create_atoms 2 single 80.3479 43.8363 75.26338395415472
Created 1 atoms
  using lattice units in orthogonal box = (68.195723 16.754678 69.028902) to (114.37642 59.982022 115.15018)
  create_atoms CPU = 0.000 seconds
create_atoms 1 single 81.16004000000001 43.9325 72.8149412034384
Created 1 atoms
  using lattice units in orthogonal box = (68.195723 16.754678 69.028902) to (114.37642 59.982022 115.15018)
  create_atoms CPU = 0.000 seconds
create_atoms 1 single 83.62308 45.8998 73.6194187965616
Created 1 atoms
  using lattice units in orthogonal box = (68.195723 16.754678 69.028902) to (114.37642 59.982022 115.15018)
  create_atoms CPU = 0.000 seconds
create_atoms 3 single 81.67862000000001 46.0351 74.93723277936964
Created 1 atoms
  using lattice units in orthogonal box = (68.195723 16.754678 69.028902) to (114.37642 59.982022 115.15018)
  create_atoms CPU = 0.000 seconds
create_atoms 1 single 83.30264 44.0658 76.27942487106017
Created 1 atoms
  using lattice units in orthogonal box = (68.195723 16.754678 69.028902) to (114.37642 59.982022 115.15018)
  create_atoms CPU = 0.000 seconds
create_atoms 1 single 86.00064 44.2055 72.98623232091691
Created 1 atoms
  using lattice units in orthogonal box = (68.195723 16.754678 69.028902) to (114.37642 59.982022 115.15018)
  create_atoms CPU = 0.000 seconds
create_atoms 2 single 88.86568 45.3817 76.2065053295129
Created 1 atoms
  using lattice units in orthogonal box = (68.195723 16.754678 69.028902) to (114.37642 59.982022 115.15018)
  create_atoms CPU = 0.000 seconds
create_atoms 1 single 86.74824 46.8319 74.54396126074498
Created 1 atoms
  using lattice units in orthogonal box = (68.195723 16.754678 69.028902) to (114.37642 59.982022 115.15018)
  create_atoms CPU = 0.000 seconds
create_atoms 1 single 89.05496000000001 45.3681 73.52512813753582
Created 1 atoms
  using lattice units in orthogonal box = (68.195723 16.754678 69.028902) to (114.37642 59.982022 115.15018)
  create_atoms CPU = 0.000 seconds
create_atoms 2 single 89.59524 47.7642 74.98427071633238
Created 1 atoms
  using lattice units in orthogonal box = (68.195723 16.754678 69.028902) to (114.37642 59.982022 115.15018)
  create_atoms CPU = 0.000 seconds
create_atoms 1 single 86.5169 43.9939 76.18427507163324
Created 1 atoms
  using lattice units in orthogonal box = (68.195723 16.754678 69.028902) to (114.37642 59.982022 115.15018)
  create_atoms CPU = 0.000 seconds
create_atoms 1 single 90.89884 43.7017 72.27636756446992
Created 1 atoms
  using lattice units in orthogonal box = (68.195723 16.754678 69.028902) to (114.37642 59.982022 115.15018)
  create_atoms CPU = 0.000 seconds
create_atoms 2 single 91.45938 43.6098 75.07405088825215
Created 1 atoms
  using lattice units in orthogonal box = (68.195723 16.754678 69.028902) to (114.37642 59.982022 115.15018)
  create_atoms CPU = 0.000 seconds
create_atoms 2 single 93.9681 43.8652 75.00403094555872
Created 1 atoms
  using lattice units in orthogonal box = (68.195723 16.754678 69.028902) to (114.37642 59.982022 115.15018)
  create_atoms CPU = 0.000 seconds
create_atoms 1 single 92.06716 46.1428 74.13780263610316
Created 1 atoms
  using lattice units in orthogonal box = (68.195723 16.754678 69.028902) to (114.37642 59.982022 115.15018)
  create_atoms CPU = 0.000 seconds
create_atoms 4 single 97.11468 45.2181 76.06635805157593
Created 1 atoms
  using lattice units in orthogonal box = (68.195723 16.754678 69.028902) to (114.37642 59.982022 115.15018)
  create_atoms CPU = 0.000 seconds
create_atoms 1 single 81.86784 48.3047 73.77664148997134
Created 1 atoms
  using lattice units in orthogonal box = (68.195723 16.754678 69.028902) to (114.37642 59.982022 115.15018)
  create_atoms CPU = 0.000 seconds
create_atoms 2 single 81.50628 50.0154 75.78498957020058
Created 1 atoms
  using lattice units in orthogonal box = (68.195723 16.754678 69.028902) to (114.37642 59.982022 115.15018)
  create_atoms CPU = 0.000 seconds
create_atoms 1 single 85.02538 48.9366 75.17875862464183
Created 1 atoms
  using lattice units in orthogonal box = (68.195723 16.754678 69.028902) to (114.37642 59.982022 115.15018)
  create_atoms CPU = 0.000 seconds
create_atoms 2 single 87.16246000000001 22.6264 80.97709719197708
Created 1 atoms
  using lattice units in orthogonal box = (68.195723 16.754678 69.028902) to (114.37642 59.982022 115.15018)
  create_atoms CPU = 0.000 seconds
create_atoms 1 single 89.64066 23.4217 80.68015679083095
Created 1 atoms
  using lattice units in orthogonal box = (68.195723 16.754678 69.028902) to (114.37642 59.982022 115.15018)
  create_atoms CPU = 0.000 seconds
create_atoms 1 single 75.44446 26.8078 80.02237742120344
Created 1 atoms
  using lattice units in orthogonal box = (68.195723 16.754678 69.028902) to (114.37642 59.982022 115.15018)
  create_atoms CPU = 0.000 seconds
create_atoms 3 single 77.56402 25.184 79.6539135816619
Created 1 atoms
  using lattice units in orthogonal box = (68.195723 16.754678 69.028902) to (114.37642 59.982022 115.15018)
  create_atoms CPU = 0.000 seconds
create_atoms 3 single 77.54034 27.7613 79.32991025787966
Created 1 atoms
  using lattice units in orthogonal box = (68.195723 16.754678 69.028902) to (114.37642 59.982022 115.15018)
  create_atoms CPU = 0.000 seconds
create_atoms 1 single 79.73816 26.4182 78.8475029226361
Created 1 atoms
  using lattice units in orthogonal box = (68.195723 16.754678 69.028902) to (114.37642 59.982022 115.15018)
  create_atoms CPU = 0.000 seconds
create_atoms 1 single 80.30418 23.9642 81.06870303724929
Created 1 atoms
  using lattice units in orthogonal box = (68.195723 16.754678 69.028902) to (114.37642 59.982022 115.15018)
  create_atoms CPU = 0.000 seconds
create_atoms 2 single 85.5527 24.263 81.5453111747851
Created 1 atoms
  using lattice units in orthogonal box = (68.195723 16.754678 69.028902) to (114.37642 59.982022 115.15018)
  create_atoms CPU = 0.000 seconds
create_atoms 1 single 82.10288 25.5922 77.36419702005732
Created 1 atoms
  using lattice units in orthogonal box = (68.195723 16.754678 69.028902) to (114.37642 59.982022 115.15018)
  create_atoms CPU = 0.000 seconds
create_atoms 3 single 82.09518 27.8257 79.11147381088826
Created 1 atoms
  using lattice units in orthogonal box = (68.195723 16.754678 69.028902) to (114.37642 59.982022 115.15018)
  create_atoms CPU = 0.000 seconds
create_atoms 4 single 84.8307 24.0573 78.60275530085958
Created 1 atoms
  using lattice units in orthogonal box = (68.195723 16.754678 69.028902) to (114.37642 59.982022 115.15018)
  create_atoms CPU = 0.000 seconds
create_atoms 1 single 82.7603 25.1262 80.38171289398281
Created 1 atoms
  using lattice units in orthogonal box = (68.195723 16.754678 69.028902) to (114.37642 59.982022 115.15018)
  create_atoms CPU = 0.000 seconds
create_atoms 1 single 84.83384 27.1441 79.08075954154728
Created 1 atoms
  using lattice units in orthogonal box = (68.195723 16.754678 69.028902) to (114.37642 59.982022 115.15018)
  create_atoms CPU = 0.000 seconds
create_atoms 3 single 87.94726 23.8627 77.87882212034384
Created 1 atoms
  using lattice units in orthogonal box = (68.195723 16.754678 69.028902) to (114.37642 59.982022 115.15018)
  create_atoms CPU = 0.000 seconds
create_atoms 1 single 86.20902000000001 26.0614 77.02011128939827
Created 1 atoms
  using lattice units in orthogonal box = (68.195723 16.754678 69.028902) to (114.37642 59.982022 115.15018)
  create_atoms CPU = 0.000 seconds
create_atoms 4 single 87.26952000000001 25.3373 80.25638578796563
Created 1 atoms
  using lattice units in orthogonal box = (68.195723 16.754678 69.028902) to (114.37642 59.982022 115.15018)
  create_atoms CPU = 0.000 seconds
create_atoms 1 single 90.98128 23.996 78.51866693409741
Created 1 atoms
  using lattice units in orthogonal box = (68.195723 16.754678 69.028902) to (114.37642 59.982022 115.15018)
  create_atoms CPU = 0.000 seconds
create_atoms 3 single 89.29922 25.8244 79.15776
Created 1 atoms
  using lattice units in orthogonal box = (68.195723 16.754678 69.028902) to (114.37642 59.982022 115.15018)
  create_atoms CPU = 0.000 seconds
create_atoms 4 single 87.89958 27.9109 79.18933340974212
Created 1 atoms
  using lattice units in orthogonal box = (68.195723 16.754678 69.028902) to (114.37642 59.982022 115.15018)
  create_atoms CPU = 0.000 seconds
create_atoms 2 single 91.97174000000001 25.1436 81.19639277936963
Created 1 atoms
  using lattice units in orthogonal box = (68.195723 16.754678 69.028902) to (114.37642 59.982022 115.15018)
  create_atoms CPU = 0.000 seconds
create_atoms 1 single 91.45126 26.9524 78.66439862464183
Created 1 atoms
  using lattice units in orthogonal box = (68.195723 16.754678 69.028902) to (114.37642 59.982022 115.15018)
  create_atoms CPU = 0.000 seconds
create_atoms 1 single 94.11576000000001 26.6698 77.585103495702
Created 1 atoms
  using lattice units in orthogonal box = (68.195723 16.754678 69.028902) to (114.37642 59.982022 115.15018)
  create_atoms CPU = 0.000 seconds
create_atoms 1 single 94.07446 25.0994 80.06264962750717
Created 1 atoms
  using lattice units in orthogonal box = (68.195723 16.754678 69.028902) to (114.37642 59.982022 115.15018)
  create_atoms CPU = 0.000 seconds
create_atoms 3 single 93.7699 28.4522 79.31047220630373
Created 1 atoms
  using lattice units in orthogonal box = (68.195723 16.754678 69.028902) to (114.37642 59.982022 115.15018)
  create_atoms CPU = 0.000 seconds
create_atoms 1 single 96.99482 26.5229 80.13342131805157
Created 1 atoms
  using lattice units in orthogonal box = (68.195723 16.754678 69.028902) to (114.37642 59.982022 115.15018)
  create_atoms CPU = 0.000 seconds
create_atoms 3 single 99.89304000000001 27.065 81.11531140401146
Created 1 atoms
  using lattice units in orthogonal box = (68.195723 16.754678 69.028902) to (114.37642 59.982022 115.15018)
  create_atoms CPU = 0.000 seconds
create_atoms 5 single 71.61176 30.2144 81.44210693409741
Created 1 atoms
  using lattice units in orthogonal box = (68.195723 16.754678 69.028902) to (114.37642 59.982022 115.15018)
  create_atoms CPU = 0.000 seconds
create_atoms 1 single 75.22236000000001 29.3477 78.35994074498568
Created 1 atoms
  using lattice units in orthogonal box = (68.195723 16.754678 69.028902) to (114.37642 59.982022 115.15018)
  create_atoms CPU = 0.000 seconds
create_atoms 1 single 74.86934 32.2291 77.812990487106
Created 1 atoms
  using lattice units in orthogonal box = (68.195723 16.754678 69.028902) to (114.37642 59.982022 115.15018)
  create_atoms CPU = 0.000 seconds
create_atoms 1 single 74.2043 29.3183 80.95572607449856
Created 1 atoms
  using lattice units in orthogonal box = (68.195723 16.754678 69.028902) to (114.37642 59.982022 115.15018)
  create_atoms CPU = 0.000 seconds
create_atoms 2 single 75.8222 31.5057 80.79302636103151
Created 1 atoms
  using lattice units in orthogonal box = (68.195723 16.754678 69.028902) to (114.37642 59.982022 115.15018)
  create_atoms CPU = 0.000 seconds
create_atoms 1 single 72.91392 32.2351 80.09314911174786
Created 1 atoms
  using lattice units in orthogonal box = (68.195723 16.754678 69.028902) to (114.37642 59.982022 115.15018)
  create_atoms CPU = 0.000 seconds
create_atoms 1 single 77.80712000000001 28.7317 77.01796343839541
Created 1 atoms
  using lattice units in orthogonal box = (68.195723 16.754678 69.028902) to (114.37642 59.982022 115.15018)
  create_atoms CPU = 0.000 seconds
create_atoms 1 single 80.67254000000001 30.2662 78.2887394842407
Created 1 atoms
  using lattice units in orthogonal box = (68.195723 16.754678 69.028902) to (114.37642 59.982022 115.15018)
  create_atoms CPU = 0.000 seconds
create_atoms 1 single 77.92224 30.9282 79.05713318051576
Created 1 atoms
  using lattice units in orthogonal box = (68.195723 16.754678 69.028902) to (114.37642 59.982022 115.15018)
  create_atoms CPU = 0.000 seconds
create_atoms 1 single 79.48902 32.4981 76.31132045845273
Created 1 atoms
  using lattice units in orthogonal box = (68.195723 16.754678 69.028902) to (114.37642 59.982022 115.15018)
  create_atoms CPU = 0.000 seconds
create_atoms 3 single 79.82509999999999 28.9009 80.14974498567335
Created 1 atoms
  using lattice units in orthogonal box = (68.195723 16.754678 69.028902) to (114.37642 59.982022 115.15018)
  create_atoms CPU = 0.000 seconds
create_atoms 1 single 80.31302 33.0406 79.5062488252149
Created 1 atoms
  using lattice units in orthogonal box = (68.195723 16.754678 69.028902) to (114.37642 59.982022 115.15018)
  create_atoms CPU = 0.000 seconds
create_atoms 1 single 82.09506 30.6003 81.51942957020057
Created 1 atoms
  using lattice units in orthogonal box = (68.195723 16.754678 69.028902) to (114.37642 59.982022 115.15018)
  create_atoms CPU = 0.000 seconds
create_atoms 1 single 83.28664 29.6144 77.76090510028654
Created 1 atoms
  using lattice units in orthogonal box = (68.195723 16.754678 69.028902) to (114.37642 59.982022 115.15018)
  create_atoms CPU = 0.000 seconds
create_atoms 2 single 82.38586000000001 32.2711 76.77053100286533
Created 1 atoms
  using lattice units in orthogonal box = (68.195723 16.754678 69.028902) to (114.37642 59.982022 115.15018)
  create_atoms CPU = 0.000 seconds
create_atoms 1 single 85.2229 31.798 77.49070544412606
Created 1 atoms
  using lattice units in orthogonal box = (68.195723 16.754678 69.028902) to (114.37642 59.982022 115.15018)
  create_atoms CPU = 0.000 seconds
create_atoms 2 single 84.12599999999999 29.2523 80.6743575931232
Created 1 atoms
  using lattice units in orthogonal box = (68.195723 16.754678 69.028902) to (114.37642 59.982022 115.15018)
  create_atoms CPU = 0.000 seconds
create_atoms 1 single 83.71326 31.998 79.88330406876791
Created 1 atoms
  using lattice units in orthogonal box = (68.195723 16.754678 69.028902) to (114.37642 59.982022 115.15018)
  create_atoms CPU = 0.000 seconds
create_atoms 1 single 86.72864 32.9023 80.57244206303724
Created 1 atoms
  using lattice units in orthogonal box = (68.195723 16.754678 69.028902) to (114.37642 59.982022 115.15018)
  create_atoms CPU = 0.000 seconds
create_atoms 2 single 86.12888000000001 30.0268 79.78804687679083
Created 1 atoms
  using lattice units in orthogonal box = (68.195723 16.754678 69.028902) to (114.37642 59.982022 115.15018)
  create_atoms CPU = 0.000 seconds
create_atoms 2 single 85.74502 28.9799 77.20965914040114
Created 1 atoms
  using lattice units in orthogonal box = (68.195723 16.754678 69.028902) to (114.37642 59.982022 115.15018)
  create_atoms CPU = 0.000 seconds
create_atoms 1 single 88.6638 28.7673 76.65895014326648
Created 1 atoms
  using lattice units in orthogonal box = (68.195723 16.754678 69.028902) to (114.37642 59.982022 115.15018)
  create_atoms CPU = 0.000 seconds
create_atoms 1 single 88.22416 30.7481 78.64882670487106
Created 1 atoms
  using lattice units in orthogonal box = (68.195723 16.754678 69.028902) to (114.37642 59.982022 115.15018)
  create_atoms CPU = 0.000 seconds
create_atoms 4 single 90.60188000000001 28.8362 80.39964744985673
Created 1 atoms
  using lattice units in orthogonal box = (68.195723 16.754678 69.028902) to (114.37642 59.982022 115.15018)
  create_atoms CPU = 0.000 seconds
create_atoms 4 single 91.05404 32.3234 79.34387128939828
Created 1 atoms
  using lattice units in orthogonal box = (68.195723 16.754678 69.028902) to (114.37642 59.982022 115.15018)
  create_atoms CPU = 0.000 seconds
create_atoms 3 single 95.05392 32.5755 77.32510613180516
Created 1 atoms
  using lattice units in orthogonal box = (68.195723 16.754678 69.028902) to (114.37642 59.982022 115.15018)
  create_atoms CPU = 0.000 seconds
create_atoms 4 single 91.41334 29.9702 78.0820088252149
Created 1 atoms
  using lattice units in orthogonal box = (68.195723 16.754678 69.028902) to (114.37642 59.982022 115.15018)
  create_atoms CPU = 0.000 seconds
create_atoms 1 single 93.53528000000001 29.499 76.65272137535817
Created 1 atoms
  using lattice units in orthogonal box = (68.195723 16.754678 69.028902) to (114.37642 59.982022 115.15018)
  create_atoms CPU = 0.000 seconds
create_atoms 1 single 92.06742 32.4645 76.77579323782234
Created 1 atoms
  using lattice units in orthogonal box = (68.195723 16.754678 69.028902) to (114.37642 59.982022 115.15018)
  create_atoms CPU = 0.000 seconds
create_atoms 1 single 94.63248 31.1311 79.35525489971347
Created 1 atoms
  using lattice units in orthogonal box = (68.195723 16.754678 69.028902) to (114.37642 59.982022 115.15018)
  create_atoms CPU = 0.000 seconds
create_atoms 4 single 93.10116000000001 30.311 81.07106567335242
Created 1 atoms
  using lattice units in orthogonal box = (68.195723 16.754678 69.028902) to (114.37642 59.982022 115.15018)
  create_atoms CPU = 0.000 seconds
create_atoms 3 single 96.11498 28.8756 78.74096951289398
Created 1 atoms
  using lattice units in orthogonal box = (68.195723 16.754678 69.028902) to (114.37642 59.982022 115.15018)
  create_atoms CPU = 0.000 seconds
create_atoms 3 single 97.21506 31.13 79.23143128939827
Created 1 atoms
  using lattice units in orthogonal box = (68.195723 16.754678 69.028902) to (114.37642 59.982022 115.15018)
  create_atoms CPU = 0.000 seconds
create_atoms 1 single 96.30316 30.6328 76.43654017191976
Created 1 atoms
  using lattice units in orthogonal box = (68.195723 16.754678 69.028902) to (114.37642 59.982022 115.15018)
  create_atoms CPU = 0.000 seconds
create_atoms 1 single 98.90115999999999 29.262 78.61070234957019
Created 1 atoms
  using lattice units in orthogonal box = (68.195723 16.754678 69.028902) to (114.37642 59.982022 115.15018)
  create_atoms CPU = 0.000 seconds
create_atoms 3 single 97.63992 33.015 77.82072275071634
Created 1 atoms
  using lattice units in orthogonal box = (68.195723 16.754678 69.028902) to (114.37642 59.982022 115.15018)
  create_atoms CPU = 0.000 seconds
create_atoms 5 single 99.37895999999999 31.6255 77.05673214899713
Created 1 atoms
  using lattice units in orthogonal box = (68.195723 16.754678 69.028902) to (114.37642 59.982022 115.15018)
  create_atoms CPU = 0.000 seconds
create_atoms 5 single 98.58798 29.3114 81.19166750716332
Created 1 atoms
  using lattice units in orthogonal box = (68.195723 16.754678 69.028902) to (114.37642 59.982022 115.15018)
  create_atoms CPU = 0.000 seconds
create_atoms 1 single 99.86982 32.1264 80.17584137535817
Created 1 atoms
  using lattice units in orthogonal box = (68.195723 16.754678 69.028902) to (114.37642 59.982022 115.15018)
  create_atoms CPU = 0.000 seconds
create_atoms 1 single 101.7115 29.8015 81.32354555873926
Created 1 atoms
  using lattice units in orthogonal box = (68.195723 16.754678 69.028902) to (114.37642 59.982022 115.15018)
  create_atoms CPU = 0.000 seconds
create_atoms 3 single 102.83692 32.2138 80.68112332378224
Created 1 atoms
  using lattice units in orthogonal box = (68.195723 16.754678 69.028902) to (114.37642 59.982022 115.15018)
  create_atoms CPU = 0.000 seconds
create_atoms 1 single 71.82684 37.0667 78.95349936962751
Created 1 atoms
  using lattice units in orthogonal box = (68.195723 16.754678 69.028902) to (114.37642 59.982022 115.15018)
  create_atoms CPU = 0.000 seconds
create_atoms 5 single 70.48956 38.0601 81.03992183381088
Created 1 atoms
  using lattice units in orthogonal box = (68.195723 16.754678 69.028902) to (114.37642 59.982022 115.15018)
  create_atoms CPU = 0.000 seconds
create_atoms 1 single 73.60604000000001 34.632 78.76985810888252
Created 1 atoms
  using lattice units in orthogonal box = (68.195723 16.754678 69.028902) to (114.37642 59.982022 115.15018)
  create_atoms CPU = 0.000 seconds
create_atoms 2 single 75.00174 34.8164 76.86095553008596
Created 1 atoms
  using lattice units in orthogonal box = (68.195723 16.754678 69.028902) to (114.37642 59.982022 115.15018)
  create_atoms CPU = 0.000 seconds
create_atoms 1 single 73.53620000000001 37.1427 76.95911232091692
Created 1 atoms
  using lattice units in orthogonal box = (68.195723 16.754678 69.028902) to (114.37642 59.982022 115.15018)
  create_atoms CPU = 0.000 seconds
create_atoms 2 single 74.55792000000001 36.612 80.76005684813754
Created 1 atoms
  using lattice units in orthogonal box = (68.195723 16.754678 69.028902) to (114.37642 59.982022 115.15018)
  create_atoms CPU = 0.000 seconds
create_atoms 1 single 76.2699 36.4563 79.37490773638969
Created 1 atoms
  using lattice units in orthogonal box = (68.195723 16.754678 69.028902) to (114.37642 59.982022 115.15018)
  create_atoms CPU = 0.000 seconds
create_atoms 3 single 72.6618 35.1056 81.11359312320917
Created 1 atoms
  using lattice units in orthogonal box = (68.195723 16.754678 69.028902) to (114.37642 59.982022 115.15018)
  create_atoms CPU = 0.000 seconds
create_atoms 1 single 77.17836 33.6774 80.25166051575931
Created 1 atoms
  using lattice units in orthogonal box = (68.195723 16.754678 69.028902) to (114.37642 59.982022 115.15018)
  create_atoms CPU = 0.000 seconds
create_atoms 5 single 77.43532 33.6528 77.43625742120344
Created 1 atoms
  using lattice units in orthogonal box = (68.195723 16.754678 69.028902) to (114.37642 59.982022 115.15018)
  create_atoms CPU = 0.000 seconds
create_atoms 3 single 79.71966 35.2129 77.37676194842406
Created 1 atoms
  using lattice units in orthogonal box = (68.195723 16.754678 69.028902) to (114.37642 59.982022 115.15018)
  create_atoms CPU = 0.000 seconds
create_atoms 1 single 77.03196 36.686 76.79737914040115
Created 1 atoms
  using lattice units in orthogonal box = (68.195723 16.754678 69.028902) to (114.37642 59.982022 115.15018)
  create_atoms CPU = 0.000 seconds
create_atoms 1 single 79.86512 37.7594 78.79423621776505
Created 1 atoms
  using lattice units in orthogonal box = (68.195723 16.754678 69.028902) to (114.37642 59.982022 115.15018)
  create_atoms CPU = 0.000 seconds
create_atoms 3 single 78.78656000000001 35.4865 79.33560206303724
Created 1 atoms
  using lattice units in orthogonal box = (68.195723 16.754678 69.028902) to (114.37642 59.982022 115.15018)
  create_atoms CPU = 0.000 seconds
create_atoms 3 single 81.54958 35.6021 79.99316664756446
Created 1 atoms
  using lattice units in orthogonal box = (68.195723 16.754678 69.028902) to (114.37642 59.982022 115.15018)
  create_atoms CPU = 0.000 seconds
create_atoms 1 single 79.03384000000001 37.6388 81.37520137535817
Created 1 atoms
  using lattice units in orthogonal box = (68.195723 16.754678 69.028902) to (114.37642 59.982022 115.15018)
  create_atoms CPU = 0.000 seconds
create_atoms 3 single 82.12478 34.035 78.34308011461317
Created 1 atoms
  using lattice units in orthogonal box = (68.195723 16.754678 69.028902) to (114.37642 59.982022 115.15018)
  create_atoms CPU = 0.000 seconds
create_atoms 1 single 84.65438 34.5699 77.8769964469914
Created 1 atoms
  using lattice units in orthogonal box = (68.195723 16.754678 69.028902) to (114.37642 59.982022 115.15018)
  create_atoms CPU = 0.000 seconds
create_atoms 1 single 82.41068 36.6018 77.71698154727794
Created 1 atoms
  using lattice units in orthogonal box = (68.195723 16.754678 69.028902) to (114.37642 59.982022 115.15018)
  create_atoms CPU = 0.000 seconds
create_atoms 5 single 84.55424000000001 35.2075 80.57297902578797
Created 1 atoms
  using lattice units in orthogonal box = (68.195723 16.754678 69.028902) to (114.37642 59.982022 115.15018)
  create_atoms CPU = 0.000 seconds
create_atoms 3 single 85.34958 37.2817 79.37995518624642
Created 1 atoms
  using lattice units in orthogonal box = (68.195723 16.754678 69.028902) to (114.37642 59.982022 115.15018)
  create_atoms CPU = 0.000 seconds
create_atoms 1 single 83.13858 37.9208 80.50328126074498
Created 1 atoms
  using lattice units in orthogonal box = (68.195723 16.754678 69.028902) to (114.37642 59.982022 115.15018)
  create_atoms CPU = 0.000 seconds
create_atoms 1 single 86.64918 36.5758 77.32070303724927
Created 1 atoms
  using lattice units in orthogonal box = (68.195723 16.754678 69.028902) to (114.37642 59.982022 115.15018)
  create_atoms CPU = 0.000 seconds
create_atoms 3 single 87.1387 35.477 79.96449283667621
Created 1 atoms
  using lattice units in orthogonal box = (68.195723 16.754678 69.028902) to (114.37642 59.982022 115.15018)
  create_atoms CPU = 0.000 seconds
create_atoms 1 single 88.14178 33.7033 78.49611449856732
Created 1 atoms
  using lattice units in orthogonal box = (68.195723 16.754678 69.028902) to (114.37642 59.982022 115.15018)
  create_atoms CPU = 0.000 seconds
create_atoms 1 single 89.62198 36.2661 79.72038957020057
Created 1 atoms
  using lattice units in orthogonal box = (68.195723 16.754678 69.028902) to (114.37642 59.982022 115.15018)
  create_atoms CPU = 0.000 seconds
create_atoms 5 single 90.29038 37.4234 77.11236148997133
Created 1 atoms
  using lattice units in orthogonal box = (68.195723 16.754678 69.028902) to (114.37642 59.982022 115.15018)
  create_atoms CPU = 0.000 seconds
create_atoms 2 single 88.07192 37.8451 80.96141787965617
Created 1 atoms
  using lattice units in orthogonal box = (68.195723 16.754678 69.028902) to (114.37642 59.982022 115.15018)
  create_atoms CPU = 0.000 seconds
create_atoms 4 single 91.17718 34.7122 78.13366464183382
Created 1 atoms
  using lattice units in orthogonal box = (68.195723 16.754678 69.028902) to (114.37642 59.982022 115.15018)
  create_atoms CPU = 0.000 seconds
create_atoms 3 single 93.98502 33.8951 78.89518521489971
Created 1 atoms
  using lattice units in orthogonal box = (68.195723 16.754678 69.028902) to (114.37642 59.982022 115.15018)
  create_atoms CPU = 0.000 seconds
create_atoms 1 single 93.47166 36.3191 77.70269833810887
Created 1 atoms
  using lattice units in orthogonal box = (68.195723 16.754678 69.028902) to (114.37642 59.982022 115.15018)
  create_atoms CPU = 0.000 seconds
create_atoms 2 single 94.74282000000001 35.6021 80.97054624641834
Created 1 atoms
  using lattice units in orthogonal box = (68.195723 16.754678 69.028902) to (114.37642 59.982022 115.15018)
  create_atoms CPU = 0.000 seconds
create_atoms 4 single 92.29458 34.6323 81.06601822349569
Created 1 atoms
  using lattice units in orthogonal box = (68.195723 16.754678 69.028902) to (114.37642 59.982022 115.15018)
  create_atoms CPU = 0.000 seconds
create_atoms 4 single 92.4723 37.1684 79.9671776504298
Created 1 atoms
  using lattice units in orthogonal box = (68.195723 16.754678 69.028902) to (114.37642 59.982022 115.15018)
  create_atoms CPU = 0.000 seconds
create_atoms 1 single 96.83234 33.6573 80.03655323782235
Created 1 atoms
  using lattice units in orthogonal box = (68.195723 16.754678 69.028902) to (114.37642 59.982022 115.15018)
  create_atoms CPU = 0.000 seconds
create_atoms 1 single 96.14902000000001 35.3001 77.25046830945558
Created 1 atoms
  using lattice units in orthogonal box = (68.195723 16.754678 69.028902) to (114.37642 59.982022 115.15018)
  create_atoms CPU = 0.000 seconds
create_atoms 1 single 96.5585 36.5891 79.90435300859599
Created 1 atoms
  using lattice units in orthogonal box = (68.195723 16.754678 69.028902) to (114.37642 59.982022 115.15018)
  create_atoms CPU = 0.000 seconds
create_atoms 2 single 98.3262 37.8352 78.71981318051576
Created 1 atoms
  using lattice units in orthogonal box = (68.195723 16.754678 69.028902) to (114.37642 59.982022 115.15018)
  create_atoms CPU = 0.000 seconds
create_atoms 1 single 100.17458 37.0879 77.5580405730659
Created 1 atoms
  using lattice units in orthogonal box = (68.195723 16.754678 69.028902) to (114.37642 59.982022 115.15018)
  create_atoms CPU = 0.000 seconds
create_atoms 1 single 99.30908 35.224 79.65971277936963
Created 1 atoms
  using lattice units in orthogonal box = (68.195723 16.754678 69.028902) to (114.37642 59.982022 115.15018)
  create_atoms CPU = 0.000 seconds
create_atoms 1 single 100.89620000000001 37.682 81.20702464183381
Created 1 atoms
  using lattice units in orthogonal box = (68.195723 16.754678 69.028902) to (114.37642 59.982022 115.15018)
  create_atoms CPU = 0.000 seconds
create_atoms 1 single 101.319 33.8858 78.55926131805157
Created 1 atoms
  using lattice units in orthogonal box = (68.195723 16.754678 69.028902) to (114.37642 59.982022 115.15018)
  create_atoms CPU = 0.000 seconds
create_atoms 2 single 102.57386 36.2935 79.76839404011461
Created 1 atoms
  using lattice units in orthogonal box = (68.195723 16.754678 69.028902) to (114.37642 59.982022 115.15018)
  create_atoms CPU = 0.000 seconds
create_atoms 1 single 71.1409 41.0096 81.06150773638969
Created 1 atoms
  using lattice units in orthogonal box = (68.195723 16.754678 69.028902) to (114.37642 59.982022 115.15018)
  create_atoms CPU = 0.000 seconds
create_atoms 1 single 72.88028 42.625 79.49164343839541
Created 1 atoms
  using lattice units in orthogonal box = (68.195723 16.754678 69.028902) to (114.37642 59.982022 115.15018)
  create_atoms CPU = 0.000 seconds
create_atoms 5 single 71.68858 39.9821 78.51007553008596
Created 1 atoms
  using lattice units in orthogonal box = (68.195723 16.754678 69.028902) to (114.37642 59.982022 115.15018)
  create_atoms CPU = 0.000 seconds
create_atoms 2 single 74.25888 38.9231 79.08945833810888
Created 1 atoms
  using lattice units in orthogonal box = (68.195723 16.754678 69.028902) to (114.37642 59.982022 115.15018)
  create_atoms CPU = 0.000 seconds
create_atoms 1 single 74.26812 41.1907 77.43786830945558
Created 1 atoms
  using lattice units in orthogonal box = (68.195723 16.754678 69.028902) to (114.37642 59.982022 115.15018)
  create_atoms CPU = 0.000 seconds
create_atoms 4 single 75.65082 41.3066 80.46902303724929
Created 1 atoms
  using lattice units in orthogonal box = (68.195723 16.754678 69.028902) to (114.37642 59.982022 115.15018)
  create_atoms CPU = 0.000 seconds
create_atoms 1 single 73.3646 38.8 81.49752148997135
Created 1 atoms
  using lattice units in orthogonal box = (68.195723 16.754678 69.028902) to (114.37642 59.982022 115.15018)
  create_atoms CPU = 0.000 seconds
create_atoms 3 single 76.35866 41.0826 76.37693730659025
Created 1 atoms
  using lattice units in orthogonal box = (68.195723 16.754678 69.028902) to (114.37642 59.982022 115.15018)
  create_atoms CPU = 0.000 seconds
create_atoms 2 single 77.17132 42.2039 78.79155140401146
Created 1 atoms
  using lattice units in orthogonal box = (68.195723 16.754678 69.028902) to (114.37642 59.982022 115.15018)
  create_atoms CPU = 0.000 seconds
create_atoms 1 single 79.43696 40.7561 78.29496825214899
Created 1 atoms
  using lattice units in orthogonal box = (68.195723 16.754678 69.028902) to (114.37642 59.982022 115.15018)
  create_atoms CPU = 0.000 seconds
create_atoms 1 single 76.81402 39.2145 78.52790269340974
Created 1 atoms
  using lattice units in orthogonal box = (68.195723 16.754678 69.028902) to (114.37642 59.982022 115.15018)
  create_atoms CPU = 0.000 seconds
create_atoms 5 single 81.1914 39.6525 81.27951461318051
Created 1 atoms
  using lattice units in orthogonal box = (68.195723 16.754678 69.028902) to (114.37642 59.982022 115.15018)
  create_atoms CPU = 0.000 seconds
create_atoms 4 single 78.43638 40.6155 81.15676492836675
Created 1 atoms
  using lattice units in orthogonal box = (68.195723 16.754678 69.028902) to (114.37642 59.982022 115.15018)
  create_atoms CPU = 0.000 seconds
create_atoms 4 single 80.10226 42.5956 80.61196252148997
Created 1 atoms
  using lattice units in orthogonal box = (68.195723 16.754678 69.028902) to (114.37642 59.982022 115.15018)
  create_atoms CPU = 0.000 seconds
create_atoms 2 single 82.31494 41.3286 79.96460022922636
Created 1 atoms
  using lattice units in orthogonal box = (68.195723 16.754678 69.028902) to (114.37642 59.982022 115.15018)
  create_atoms CPU = 0.000 seconds
create_atoms 2 single 81.57624 39.1731 77.79795553008596
Created 1 atoms
  using lattice units in orthogonal box = (68.195723 16.754678 69.028902) to (114.37642 59.982022 115.15018)
  create_atoms CPU = 0.000 seconds
create_atoms 4 single 84.3377 38.8988 77.34142979942693
Created 1 atoms
  using lattice units in orthogonal box = (68.195723 16.754678 69.028902) to (114.37642 59.982022 115.15018)
  create_atoms CPU = 0.000 seconds
create_atoms 1 single 82.52706 41.4257 77.22856022922636
Created 1 atoms
  using lattice units in orthogonal box = (68.195723 16.754678 69.028902) to (114.37642 59.982022 115.15018)
  create_atoms CPU = 0.000 seconds
create_atoms 3 single 83.80326000000001 43.175 79.28620148997135
Created 1 atoms
  using lattice units in orthogonal box = (68.195723 16.754678 69.028902) to (114.37642 59.982022 115.15018)
  create_atoms CPU = 0.000 seconds
create_atoms 1 single 85.6406 41.9581 77.8273810888252
Created 1 atoms
  using lattice units in orthogonal box = (68.195723 16.754678 69.028902) to (114.37642 59.982022 115.15018)
  create_atoms CPU = 0.000 seconds
create_atoms 1 single 84.81778 40.2049 79.99424057306591
Created 1 atoms
  using lattice units in orthogonal box = (68.195723 16.754678 69.028902) to (114.37642 59.982022 115.15018)
  create_atoms CPU = 0.000 seconds
create_atoms 3 single 86.2878 42.6567 80.49877077363897
Created 1 atoms
  using lattice units in orthogonal box = (68.195723 16.754678 69.028902) to (114.37642 59.982022 115.15018)
  create_atoms CPU = 0.000 seconds
create_atoms 4 single 88.60092 38.898 78.32385684813754
Created 1 atoms
  using lattice units in orthogonal box = (68.195723 16.754678 69.028902) to (114.37642 59.982022 115.15018)
  create_atoms CPU = 0.000 seconds
create_atoms 4 single 88.41402 41.5253 77.49854510028652
Created 1 atoms
  using lattice units in orthogonal box = (68.195723 16.754678 69.028902) to (114.37642 59.982022 115.15018)
  create_atoms CPU = 0.000 seconds
create_atoms 1 single 90.74066 38.8503 81.14838830945558
Created 1 atoms
  using lattice units in orthogonal box = (68.195723 16.754678 69.028902) to (114.37642 59.982022 115.15018)
  create_atoms CPU = 0.000 seconds
create_atoms 1 single 87.91524 40.5581 80.37859851002865
Created 1 atoms
  using lattice units in orthogonal box = (68.195723 16.754678 69.028902) to (114.37642 59.982022 115.15018)
  create_atoms CPU = 0.000 seconds
create_atoms 3 single 90.3392 41.5585 80.14061661891117
Created 1 atoms
  using lattice units in orthogonal box = (68.195723 16.754678 69.028902) to (114.37642 59.982022 115.15018)
  create_atoms CPU = 0.000 seconds
create_atoms 2 single 94.5124 38.4776 79.4871329512894
Created 1 atoms
  using lattice units in orthogonal box = (68.195723 16.754678 69.028902) to (114.37642 59.982022 115.15018)
  create_atoms CPU = 0.000 seconds
create_atoms 1 single 91.73062 39.9479 78.84256286532951
Created 1 atoms
  using lattice units in orthogonal box = (68.195723 16.754678 69.028902) to (114.37642 59.982022 115.15018)
  create_atoms CPU = 0.000 seconds
create_atoms 2 single 91.4755 41.6623 76.83883266475644
Created 1 atoms
  using lattice units in orthogonal box = (68.195723 16.754678 69.028902) to (114.37642 59.982022 115.15018)
  create_atoms CPU = 0.000 seconds
create_atoms 1 single 94.85646 41.1203 79.20780492836676
Created 1 atoms
  using lattice units in orthogonal box = (68.195723 16.754678 69.028902) to (114.37642 59.982022 115.15018)
  create_atoms CPU = 0.000 seconds
create_atoms 1 single 92.98192 42.6405 80.6311857879656
Created 1 atoms
  using lattice units in orthogonal box = (68.195723 16.754678 69.028902) to (114.37642 59.982022 115.15018)
  create_atoms CPU = 0.000 seconds
create_atoms 1 single 95.56158 38.5913 77.30727896848137
Created 1 atoms
  using lattice units in orthogonal box = (68.195723 16.754678 69.028902) to (114.37642 59.982022 115.15018)
  create_atoms CPU = 0.000 seconds
create_atoms 1 single 98.42045999999999 39.7139 76.54876538681948
Created 1 atoms
  using lattice units in orthogonal box = (68.195723 16.754678 69.028902) to (114.37642 59.982022 115.15018)
  create_atoms CPU = 0.000 seconds
create_atoms 1 single 99.90428 40.2776 79.61031220630373
Created 1 atoms
  using lattice units in orthogonal box = (68.195723 16.754678 69.028902) to (114.37642 59.982022 115.15018)
  create_atoms CPU = 0.000 seconds
create_atoms 3 single 97.02114 40.9215 78.06965868194843
Created 1 atoms
  using lattice units in orthogonal box = (68.195723 16.754678 69.028902) to (114.37642 59.982022 115.15018)
  create_atoms CPU = 0.000 seconds
create_atoms 1 single 99.26794 42.7653 77.88064779369627
Created 1 atoms
  using lattice units in orthogonal box = (68.195723 16.754678 69.028902) to (114.37642 59.982022 115.15018)
  create_atoms CPU = 0.000 seconds
create_atoms 1 single 97.5359 39.3547 80.61421776504298
Created 1 atoms
  using lattice units in orthogonal box = (68.195723 16.754678 69.028902) to (114.37642 59.982022 115.15018)
  create_atoms CPU = 0.000 seconds
create_atoms 1 single 98.21668000000001 42.5179 80.71699243553009
Created 1 atoms
  using lattice units in orthogonal box = (68.195723 16.754678 69.028902) to (114.37642 59.982022 115.15018)
  create_atoms CPU = 0.000 seconds
create_atoms 3 single 100.93378 42.6566 80.80827610315185
Created 1 atoms
  using lattice units in orthogonal box = (68.195723 16.754678 69.028902) to (114.37642 59.982022 115.15018)
  create_atoms CPU = 0.000 seconds
create_atoms 2 single 102.28386 41.8831 79.32164103151862
Created 1 atoms
  using lattice units in orthogonal box = (68.195723 16.754678 69.028902) to (114.37642 59.982022 115.15018)
  create_atoms CPU = 0.000 seconds
create_atoms 1 single 102.42592 39.0005 79.35751014326648
Created 1 atoms
  using lattice units in orthogonal box = (68.195723 16.754678 69.028902) to (114.37642 59.982022 115.15018)
  create_atoms CPU = 0.000 seconds
create_atoms 1 single 75.62376 46.6588 76.5460805730659
Created 1 atoms
  using lattice units in orthogonal box = (68.195723 16.754678 69.028902) to (114.37642 59.982022 115.15018)
  create_atoms CPU = 0.000 seconds
create_atoms 4 single 72.32598 43.353 76.45995174785101
Created 1 atoms
  using lattice units in orthogonal box = (68.195723 16.754678 69.028902) to (114.37642 59.982022 115.15018)
  create_atoms CPU = 0.000 seconds
create_atoms 2 single 73.25136 45.8356 77.14962670487105
Created 1 atoms
  using lattice units in orthogonal box = (68.195723 16.754678 69.028902) to (114.37642 59.982022 115.15018)
  create_atoms CPU = 0.000 seconds
create_atoms 1 single 75.42328 44.3004 79.02341191977077
Created 1 atoms
  using lattice units in orthogonal box = (68.195723 16.754678 69.028902) to (114.37642 59.982022 115.15018)
  create_atoms CPU = 0.000 seconds
create_atoms 1 single 74.69186 47.9439 78.97691094555874
Created 1 atoms
  using lattice units in orthogonal box = (68.195723 16.754678 69.028902) to (114.37642 59.982022 115.15018)
  create_atoms CPU = 0.000 seconds
create_atoms 1 single 73.22608000000001 45.644 80.02055174785102
Created 1 atoms
  using lattice units in orthogonal box = (68.195723 16.754678 69.028902) to (114.37642 59.982022 115.15018)
  create_atoms CPU = 0.000 seconds
create_atoms 2 single 80.50102 45.9814 76.64477432664755
Created 1 atoms
  using lattice units in orthogonal box = (68.195723 16.754678 69.028902) to (114.37642 59.982022 115.15018)
  create_atoms CPU = 0.000 seconds
create_atoms 4 single 78.11304 44.5104 78.25866957020057
Created 1 atoms
  using lattice units in orthogonal box = (68.195723 16.754678 69.028902) to (114.37642 59.982022 115.15018)
  create_atoms CPU = 0.000 seconds
create_atoms 1 single 80.92066000000001 43.515 78.07857226361033
Created 1 atoms
  using lattice units in orthogonal box = (68.195723 16.754678 69.028902) to (114.37642 59.982022 115.15018)
  create_atoms CPU = 0.000 seconds
create_atoms 2 single 78.3982 47.6133 77.07617020057306
Created 1 atoms
  using lattice units in orthogonal box = (68.195723 16.754678 69.028902) to (114.37642 59.982022 115.15018)
  create_atoms CPU = 0.000 seconds
create_atoms 4 single 77.5354 46.6746 79.44417593123208
Created 1 atoms
  using lattice units in orthogonal box = (68.195723 16.754678 69.028902) to (114.37642 59.982022 115.15018)
  create_atoms CPU = 0.000 seconds
create_atoms 4 single 80.25062000000001 46.2135 79.04499782234957
Created 1 atoms
  using lattice units in orthogonal box = (68.195723 16.754678 69.028902) to (114.37642 59.982022 115.15018)
  create_atoms CPU = 0.000 seconds
create_atoms 1 single 82.32542000000001 44.5059 81.08921501432664
Created 1 atoms
  using lattice units in orthogonal box = (68.195723 16.754678 69.028902) to (114.37642 59.982022 115.15018)
  create_atoms CPU = 0.000 seconds
create_atoms 2 single 85.1864 46.2748 76.4001340974212
Created 1 atoms
  using lattice units in orthogonal box = (68.195723 16.754678 69.028902) to (114.37642 59.982022 115.15018)
  create_atoms CPU = 0.000 seconds
create_atoms 2 single 85.67576000000001 44.7489 78.68748802292264
Created 1 atoms
  using lattice units in orthogonal box = (68.195723 16.754678 69.028902) to (114.37642 59.982022 115.15018)
  create_atoms CPU = 0.000 seconds
create_atoms 5 single 83.11378 45.71 78.64163140401146
Created 1 atoms
  using lattice units in orthogonal box = (68.195723 16.754678 69.028902) to (114.37642 59.982022 115.15018)
  create_atoms CPU = 0.000 seconds
create_atoms 1 single 83.11212 47.4973 80.96356573065903
Created 1 atoms
  using lattice units in orthogonal box = (68.195723 16.754678 69.028902) to (114.37642 59.982022 115.15018)
  create_atoms CPU = 0.000 seconds
create_atoms 1 single 85.94258 47.2321 80.07102624641834
Created 1 atoms
  using lattice units in orthogonal box = (68.195723 16.754678 69.028902) to (114.37642 59.982022 115.15018)
  create_atoms CPU = 0.000 seconds
create_atoms 1 single 83.41572 47.8484 76.91969925501432
Created 1 atoms
  using lattice units in orthogonal box = (68.195723 16.754678 69.028902) to (114.37642 59.982022 115.15018)
  create_atoms CPU = 0.000 seconds
create_atoms 4 single 85.4332 44.8632 81.36435472779368
Created 1 atoms
  using lattice units in orthogonal box = (68.195723 16.754678 69.028902) to (114.37642 59.982022 115.15018)
  create_atoms CPU = 0.000 seconds
create_atoms 1 single 88.36036 43.6332 79.65992756446991
Created 1 atoms
  using lattice units in orthogonal box = (68.195723 16.754678 69.028902) to (114.37642 59.982022 115.15018)
  create_atoms CPU = 0.000 seconds
create_atoms 1 single 90.53892 43.7588 78.17565512893984
Created 1 atoms
  using lattice units in orthogonal box = (68.195723 16.754678 69.028902) to (114.37642 59.982022 115.15018)
  create_atoms CPU = 0.000 seconds
create_atoms 1 single 87.80272000000001 46.4619 78.34050269340975
Created 1 atoms
  using lattice units in orthogonal box = (68.195723 16.754678 69.028902) to (114.37642 59.982022 115.15018)
  create_atoms CPU = 0.000 seconds
create_atoms 1 single 90.48724 47.2915 77.87098246418337
Created 1 atoms
  using lattice units in orthogonal box = (68.195723 16.754678 69.028902) to (114.37642 59.982022 115.15018)
  create_atoms CPU = 0.000 seconds
create_atoms 1 single 90.80398 45.7655 80.51187266475645
Created 1 atoms
  using lattice units in orthogonal box = (68.195723 16.754678 69.028902) to (114.37642 59.982022 115.15018)
  create_atoms CPU = 0.000 seconds
create_atoms 3 single 89.02364 47.5653 80.99986441260745
Created 1 atoms
  using lattice units in orthogonal box = (68.195723 16.754678 69.028902) to (114.37642 59.982022 115.15018)
  create_atoms CPU = 0.000 seconds
create_atoms 1 single 93.33672 43.6428 77.75789810888251
Created 1 atoms
  using lattice units in orthogonal box = (68.195723 16.754678 69.028902) to (114.37642 59.982022 115.15018)
  create_atoms CPU = 0.000 seconds
create_atoms 2 single 95.46566 43.9345 80.4847023495702
Created 1 atoms
  using lattice units in orthogonal box = (68.195723 16.754678 69.028902) to (114.37642 59.982022 115.15018)
  create_atoms CPU = 0.000 seconds
create_atoms 3 single 91.49616 45.6364 76.47412756446992
Created 1 atoms
  using lattice units in orthogonal box = (68.195723 16.754678 69.028902) to (114.37642 59.982022 115.15018)
  create_atoms CPU = 0.000 seconds
create_atoms 1 single 94.54636 46.0682 76.88060836676217
Created 1 atoms
  using lattice units in orthogonal box = (68.195723 16.754678 69.028902) to (114.37642 59.982022 115.15018)
  create_atoms CPU = 0.000 seconds
create_atoms 2 single 94.82388 48.0012 79.04757524355301
Created 1 atoms
  using lattice units in orthogonal box = (68.195723 16.754678 69.028902) to (114.37642 59.982022 115.15018)
  create_atoms CPU = 0.000 seconds
create_atoms 1 single 93.33444 45.9408 79.56241512893983
Created 1 atoms
  using lattice units in orthogonal box = (68.195723 16.754678 69.028902) to (114.37642 59.982022 115.15018)
  create_atoms CPU = 0.000 seconds
create_atoms 2 single 96.27716 45.9422 79.68462785100286
Created 1 atoms
  using lattice units in orthogonal box = (68.195723 16.754678 69.028902) to (114.37642 59.982022 115.15018)
  create_atoms CPU = 0.000 seconds
create_atoms 1 single 96.2385 43.4905 77.88429914040114
Created 1 atoms
  using lattice units in orthogonal box = (68.195723 16.754678 69.028902) to (114.37642 59.982022 115.15018)
  create_atoms CPU = 0.000 seconds
create_atoms 1 single 98.771 45.2538 79.37490773638969
Created 1 atoms
  using lattice units in orthogonal box = (68.195723 16.754678 69.028902) to (114.37642 59.982022 115.15018)
  create_atoms CPU = 0.000 seconds
create_atoms 1 single 97.20374 47.738 78.03099736389684
Created 1 atoms
  using lattice units in orthogonal box = (68.195723 16.754678 69.028902) to (114.37642 59.982022 115.15018)
  create_atoms CPU = 0.000 seconds
create_atoms 1 single 100.77676 47.5014 80.83748687679083
Created 1 atoms
  using lattice units in orthogonal box = (68.195723 16.754678 69.028902) to (114.37642 59.982022 115.15018)
  create_atoms CPU = 0.000 seconds
create_atoms 1 single 101.8353 44.8487 79.86783954154728
Created 1 atoms
  using lattice units in orthogonal box = (68.195723 16.754678 69.028902) to (114.37642 59.982022 115.15018)
  create_atoms CPU = 0.000 seconds
create_atoms 3 single 75.47394 49.6836 81.21089077363897
Created 1 atoms
  using lattice units in orthogonal box = (68.195723 16.754678 69.028902) to (114.37642 59.982022 115.15018)
  create_atoms CPU = 0.000 seconds
create_atoms 4 single 76.68432 51.6698 79.91272962750716
Created 1 atoms
  using lattice units in orthogonal box = (68.195723 16.754678 69.028902) to (114.37642 59.982022 115.15018)
  create_atoms CPU = 0.000 seconds
create_atoms 1 single 78.78642 50.2338 76.43213707736389
Created 1 atoms
  using lattice units in orthogonal box = (68.195723 16.754678 69.028902) to (114.37642 59.982022 115.15018)
  create_atoms CPU = 0.000 seconds
create_atoms 2 single 79.79336 48.8866 79.80974017191977
Created 1 atoms
  using lattice units in orthogonal box = (68.195723 16.754678 69.028902) to (114.37642 59.982022 115.15018)
  create_atoms CPU = 0.000 seconds
create_atoms 1 single 76.89564 49.4007 78.06858475644698
Created 1 atoms
  using lattice units in orthogonal box = (68.195723 16.754678 69.028902) to (114.37642 59.982022 115.15018)
  create_atoms CPU = 0.000 seconds
create_atoms 1 single 79.28664 51.6468 79.16989535816619
Created 1 atoms
  using lattice units in orthogonal box = (68.195723 16.754678 69.028902) to (114.37642 59.982022 115.15018)
  create_atoms CPU = 0.000 seconds
create_atoms 1 single 78.08696 49.0251 81.34974934097421
Created 1 atoms
  using lattice units in orthogonal box = (68.195723 16.754678 69.028902) to (114.37642 59.982022 115.15018)
  create_atoms CPU = 0.000 seconds
create_atoms 1 single 82.24432 50.3793 80.91416515759313
Created 1 atoms
  using lattice units in orthogonal box = (68.195723 16.754678 69.028902) to (114.37642 59.982022 115.15018)
  create_atoms CPU = 0.000 seconds
create_atoms 1 single 81.23904 48.578 78.0487171346705
Created 1 atoms
  using lattice units in orthogonal box = (68.195723 16.754678 69.028902) to (114.37642 59.982022 115.15018)
  create_atoms CPU = 0.000 seconds
create_atoms 1 single 81.70678000000001 51.7656 77.98653684813753
Created 1 atoms
  using lattice units in orthogonal box = (68.195723 16.754678 69.028902) to (114.37642 59.982022 115.15018)
  create_atoms CPU = 0.000 seconds
create_atoms 1 single 84.2193 51.1033 76.6960005730659
Created 1 atoms
  using lattice units in orthogonal box = (68.195723 16.754678 69.028902) to (114.37642 59.982022 115.15018)
  create_atoms CPU = 0.000 seconds
create_atoms 1 single 84.2593 49.911 79.35450315186246
Created 1 atoms
  using lattice units in orthogonal box = (68.195723 16.754678 69.028902) to (114.37642 59.982022 115.15018)
  create_atoms CPU = 0.000 seconds
create_atoms 3 single 84.11458 53.0581 79.66239759312322
Created 1 atoms
  using lattice units in orthogonal box = (68.195723 16.754678 69.028902) to (114.37642 59.982022 115.15018)
  create_atoms CPU = 0.000 seconds
create_atoms 2 single 86.1496 51.9529 79.25999770773639
Created 1 atoms
  using lattice units in orthogonal box = (68.195723 16.754678 69.028902) to (114.37642 59.982022 115.15018)
  create_atoms CPU = 0.000 seconds
create_atoms 2 single 86.36382 48.9744 78.21216859598853
Created 1 atoms
  using lattice units in orthogonal box = (68.195723 16.754678 69.028902) to (114.37642 59.982022 115.15018)
  create_atoms CPU = 0.000 seconds
create_atoms 2 single 87.92986 48.6181 76.70609547277937
Created 1 atoms
  using lattice units in orthogonal box = (68.195723 16.754678 69.028902) to (114.37642 59.982022 115.15018)
  create_atoms CPU = 0.000 seconds
create_atoms 1 single 87.6557 51.1766 77.63783323782235
Created 1 atoms
  using lattice units in orthogonal box = (68.195723 16.754678 69.028902) to (114.37642 59.982022 115.15018)
  create_atoms CPU = 0.000 seconds
create_atoms 1 single 89.88212 49.3802 79.67002246418338
Created 1 atoms
  using lattice units in orthogonal box = (68.195723 16.754678 69.028902) to (114.37642 59.982022 115.15018)
  create_atoms CPU = 0.000 seconds
create_atoms 1 single 90.23638 50.1837 76.88200446991404
Created 1 atoms
  using lattice units in orthogonal box = (68.195723 16.754678 69.028902) to (114.37642 59.982022 115.15018)
  create_atoms CPU = 0.000 seconds
create_atoms 3 single 91.29574 51.9073 79.17043232091692
Created 1 atoms
  using lattice units in orthogonal box = (68.195723 16.754678 69.028902) to (114.37642 59.982022 115.15018)
  create_atoms CPU = 0.000 seconds
create_atoms 1 single 87.55272000000001 50.0215 81.05592332378222
Created 1 atoms
  using lattice units in orthogonal box = (68.195723 16.754678 69.028902) to (114.37642 59.982022 115.15018)
  create_atoms CPU = 0.000 seconds
create_atoms 1 single 89.63694 52.1587 80.80816871060172
Created 1 atoms
  using lattice units in orthogonal box = (68.195723 16.754678 69.028902) to (114.37642 59.982022 115.15018)
  create_atoms CPU = 0.000 seconds
create_atoms 1 single 92.52696 48.3001 76.52943472779369
Created 1 atoms
  using lattice units in orthogonal box = (68.195723 16.754678 69.028902) to (114.37642 59.982022 115.15018)
  create_atoms CPU = 0.000 seconds
create_atoms 1 single 93.39748 50.7228 78.41449616045846
Created 1 atoms
  using lattice units in orthogonal box = (68.195723 16.754678 69.028902) to (114.37642 59.982022 115.15018)
  create_atoms CPU = 0.000 seconds
create_atoms 2 single 92.65982 48.6452 79.79083908309455
Created 1 atoms
  using lattice units in orthogonal box = (68.195723 16.754678 69.028902) to (114.37642 59.982022 115.15018)
  create_atoms CPU = 0.000 seconds
create_atoms 1 single 94.65528 52.6065 80.84640045845272
Created 1 atoms
  using lattice units in orthogonal box = (68.195723 16.754678 69.028902) to (114.37642 59.982022 115.15018)
  create_atoms CPU = 0.000 seconds
create_atoms 1 single 95.38974 49.7156 81.2640500859599
Created 1 atoms
  using lattice units in orthogonal box = (68.195723 16.754678 69.028902) to (114.37642 59.982022 115.15018)
  create_atoms CPU = 0.000 seconds
create_atoms 2 single 97.40264 51.5285 80.96979449856734
Created 1 atoms
  using lattice units in orthogonal box = (68.195723 16.754678 69.028902) to (114.37642 59.982022 115.15018)
  create_atoms CPU = 0.000 seconds
create_atoms 3 single 96.16568000000001 50.0082 78.8268835530086
Created 1 atoms
  using lattice units in orthogonal box = (68.195723 16.754678 69.028902) to (114.37642 59.982022 115.15018)
  create_atoms CPU = 0.000 seconds
create_atoms 1 single 97.96418000000001 48.3009 81.09018154727794
Created 1 atoms
  using lattice units in orthogonal box = (68.195723 16.754678 69.028902) to (114.37642 59.982022 115.15018)
  create_atoms CPU = 0.000 seconds
create_atoms 3 single 79.30080000000001 53.8008 81.11681489971346
Created 1 atoms
  using lattice units in orthogonal box = (68.195723 16.754678 69.028902) to (114.37642 59.982022 115.15018)
  create_atoms CPU = 0.000 seconds
create_atoms 1 single 82.08036 53.3953 80.94649031518624
Created 1 atoms
  using lattice units in orthogonal box = (68.195723 16.754678 69.028902) to (114.37642 59.982022 115.15018)
  create_atoms CPU = 0.000 seconds
create_atoms 1 single 87.35086 53.7632 81.29981180515759
Created 1 atoms
  using lattice units in orthogonal box = (68.195723 16.754678 69.028902) to (114.37642 59.982022 115.15018)
  create_atoms CPU = 0.000 seconds
create_atoms 1 single 80.27136 22.9583 86.61574303724929
Created 1 atoms
  using lattice units in orthogonal box = (68.195723 16.754678 69.028902) to (114.37642 59.982022 115.15018)
  create_atoms CPU = 0.000 seconds
create_atoms 1 single 81.95756 22.0105 84.20424332378224
Created 1 atoms
  using lattice units in orthogonal box = (68.195723 16.754678 69.028902) to (114.37642 59.982022 115.15018)
  create_atoms CPU = 0.000 seconds
create_atoms 5 single 84.19384000000001 20.2186 86.15148504297994
Created 1 atoms
  using lattice units in orthogonal box = (68.195723 16.754678 69.028902) to (114.37642 59.982022 115.15018)
  create_atoms CPU = 0.000 seconds
create_atoms 1 single 83.5537 22.7206 82.32175931232092
Created 1 atoms
  using lattice units in orthogonal box = (68.195723 16.754678 69.028902) to (114.37642 59.982022 115.15018)
  create_atoms CPU = 0.000 seconds
create_atoms 3 single 84.86408 22.4964 85.21405547277938
Created 1 atoms
  using lattice units in orthogonal box = (68.195723 16.754678 69.028902) to (114.37642 59.982022 115.15018)
  create_atoms CPU = 0.000 seconds
create_atoms 1 single 86.795 22.0881 83.56804985673352
Created 1 atoms
  using lattice units in orthogonal box = (68.195723 16.754678 69.028902) to (114.37642 59.982022 115.15018)
  create_atoms CPU = 0.000 seconds
create_atoms 3 single 87.33508 23.2419 86.04849558739255
Created 1 atoms
  using lattice units in orthogonal box = (68.195723 16.754678 69.028902) to (114.37642 59.982022 115.15018)
  create_atoms CPU = 0.000 seconds
create_atoms 1 single 87.11110000000001 20.6711 86.3983805157593
Created 1 atoms
  using lattice units in orthogonal box = (68.195723 16.754678 69.028902) to (114.37642 59.982022 115.15018)
  create_atoms CPU = 0.000 seconds
create_atoms 1 single 89.8494 19.9973 85.93659255014326
Created 1 atoms
  using lattice units in orthogonal box = (68.195723 16.754678 69.028902) to (114.37642 59.982022 115.15018)
  create_atoms CPU = 0.000 seconds
create_atoms 2 single 89.47586 21.891 83.24039518624642
Created 1 atoms
  using lattice units in orthogonal box = (68.195723 16.754678 69.028902) to (114.37642 59.982022 115.15018)
  create_atoms CPU = 0.000 seconds
create_atoms 1 single 92.37454 21.4044 85.46470968481374
Created 1 atoms
  using lattice units in orthogonal box = (68.195723 16.754678 69.028902) to (114.37642 59.982022 115.15018)
  create_atoms CPU = 0.000 seconds
create_atoms 1 single 89.95414 22.8857 85.98234177650428
Created 1 atoms
  using lattice units in orthogonal box = (68.195723 16.754678 69.028902) to (114.37642 59.982022 115.15018)
  create_atoms CPU = 0.000 seconds
create_atoms 2 single 92.8923 22.7563 81.5646418338109
Created 1 atoms
  using lattice units in orthogonal box = (68.195723 16.754678 69.028902) to (114.37642 59.982022 115.15018)
  create_atoms CPU = 0.000 seconds
create_atoms 3 single 94.73172 19.695 86.20700699140401
Created 1 atoms
  using lattice units in orthogonal box = (68.195723 16.754678 69.028902) to (114.37642 59.982022 115.15018)
  create_atoms CPU = 0.000 seconds
create_atoms 1 single 94.82784 21.7182 84.3349400573066
Created 1 atoms
  using lattice units in orthogonal box = (68.195723 16.754678 69.028902) to (114.37642 59.982022 115.15018)
  create_atoms CPU = 0.000 seconds
create_atoms 1 single 96.26608 23.2778 82.1281305444126
Created 1 atoms
  using lattice units in orthogonal box = (68.195723 16.754678 69.028902) to (114.37642 59.982022 115.15018)
  create_atoms CPU = 0.000 seconds
create_atoms 5 single 96.71972 23.2256 86.65161214899715
Created 1 atoms
  using lattice units in orthogonal box = (68.195723 16.754678 69.028902) to (114.37642 59.982022 115.15018)
  create_atoms CPU = 0.000 seconds
create_atoms 1 single 98.15526000000001 22.0763 84.86631839541548
Created 1 atoms
  using lattice units in orthogonal box = (68.195723 16.754678 69.028902) to (114.37642 59.982022 115.15018)
  create_atoms CPU = 0.000 seconds
create_atoms 1 single 77.13218 24.9875 82.33754601719198
Created 1 atoms
  using lattice units in orthogonal box = (68.195723 16.754678 69.028902) to (114.37642 59.982022 115.15018)
  create_atoms CPU = 0.000 seconds
create_atoms 1 single 73.90598 28.2806 83.77016263610315
Created 1 atoms
  using lattice units in orthogonal box = (68.195723 16.754678 69.028902) to (114.37642 59.982022 115.15018)
  create_atoms CPU = 0.000 seconds
create_atoms 3 single 75.99672 27.4364 82.7151382234957
Created 1 atoms
  using lattice units in orthogonal box = (68.195723 16.754678 69.028902) to (114.37642 59.982022 115.15018)
  create_atoms CPU = 0.000 seconds
create_atoms 3 single 76.57224000000001 27.9242 85.64512916905444
Created 1 atoms
  using lattice units in orthogonal box = (68.195723 16.754678 69.028902) to (114.37642 59.982022 115.15018)
  create_atoms CPU = 0.000 seconds
create_atoms 2 single 78.49736 25.1478 85.36354590257879
Created 1 atoms
  using lattice units in orthogonal box = (68.195723 16.754678 69.028902) to (114.37642 59.982022 115.15018)
  create_atoms CPU = 0.000 seconds
create_atoms 1 single 78.71588 27.7161 84.44834659025787
Created 1 atoms
  using lattice units in orthogonal box = (68.195723 16.754678 69.028902) to (114.37642 59.982022 115.15018)
  create_atoms CPU = 0.000 seconds
create_atoms 1 single 75.67304 25.5586 84.39024722063037
Created 1 atoms
  using lattice units in orthogonal box = (68.195723 16.754678 69.028902) to (114.37642 59.982022 115.15018)
  create_atoms CPU = 0.000 seconds
create_atoms 1 single 79.31008 26.6962 81.79467667621776
Created 1 atoms
  using lattice units in orthogonal box = (68.195723 16.754678 69.028902) to (114.37642 59.982022 115.15018)
  create_atoms CPU = 0.000 seconds
create_atoms 1 single 80.21516 24.4049 83.97710808022923
Created 1 atoms
  using lattice units in orthogonal box = (68.195723 16.754678 69.028902) to (114.37642 59.982022 115.15018)
  create_atoms CPU = 0.000 seconds
create_atoms 2 single 82.607 25.1159 83.24050257879655
Created 1 atoms
  using lattice units in orthogonal box = (68.195723 16.754678 69.028902) to (114.37642 59.982022 115.15018)
  create_atoms CPU = 0.000 seconds
create_atoms 1 single 83.37270000000001 24.3133 86.09499656160457
Created 1 atoms
  using lattice units in orthogonal box = (68.195723 16.754678 69.028902) to (114.37642 59.982022 115.15018)
  create_atoms CPU = 0.000 seconds
create_atoms 1 single 81.78641999999999 27.061 84.74432045845272
Created 1 atoms
  using lattice units in orthogonal box = (68.195723 16.754678 69.028902) to (114.37642 59.982022 115.15018)
  create_atoms CPU = 0.000 seconds
create_atoms 1 single 82.21602 27.5635 81.86727404011462
Created 1 atoms
  using lattice units in orthogonal box = (68.195723 16.754678 69.028902) to (114.37642 59.982022 115.15018)
  create_atoms CPU = 0.000 seconds
create_atoms 2 single 81.1316 25.7353 86.68243381088826
Created 1 atoms
  using lattice units in orthogonal box = (68.195723 16.754678 69.028902) to (114.37642 59.982022 115.15018)
  create_atoms CPU = 0.000 seconds
create_atoms 1 single 85.516 24.8861 84.20112893982808
Created 1 atoms
  using lattice units in orthogonal box = (68.195723 16.754678 69.028902) to (114.37642 59.982022 115.15018)
  create_atoms CPU = 0.000 seconds
create_atoms 1 single 84.97008000000001 27.28 85.78323598853869
Created 1 atoms
  using lattice units in orthogonal box = (68.195723 16.754678 69.028902) to (114.37642 59.982022 115.15018)
  create_atoms CPU = 0.000 seconds
create_atoms 4 single 85.10106 26.8071 81.93557570200574
Created 1 atoms
  using lattice units in orthogonal box = (68.195723 16.754678 69.028902) to (114.37642 59.982022 115.15018)
  create_atoms CPU = 0.000 seconds
[...]
  create_atoms CPU = 0.000 seconds
create_atoms 1 single 108.4328 44.3799 108.38378338108883
Created 1 atoms
  using lattice units in orthogonal box = (68.195723 16.754678 69.028902) to (114.37642 59.982022 115.15018)
  create_atoms CPU = 0.000 seconds
create_atoms 1 single 96.648 48.5367 109.46630028653294
Created 1 atoms
  using lattice units in orthogonal box = (68.195723 16.754678 69.028902) to (114.37642 59.982022 115.15018)
  create_atoms CPU = 0.000 seconds
create_atoms 1 single 101.5605 49.2028 108.25383839541549
Created 1 atoms
  using lattice units in orthogonal box = (68.195723 16.754678 69.028902) to (114.37642 59.982022 115.15018)
  create_atoms CPU = 0.000 seconds
group surface id  1 2 3 4 5 6 7 8 9 10 11 12 13 14 15 16 19 20 21 22 23 24 25 26 31 33 34 35 38 40 42 44 46 47 48 49 50 51 52 53 57 58 60 66 67 69 72 74 75 78 79 80 81 82 83 84 85 87 88 91 93 94 95 97 99 100 101 102 103 104 105 106 107 108 109 110 111 112 113 115 116 118 119 121 126 127 129 130 131 132 133 134 136 137 158 162 164 165 167 170 171 172 173 174 175 176 179 210 213 214 215 216 217 248 251 255 256 257 258 259 261 262 266 286 291 292 293 294 295 296 297 299 300 304 305 307 308 310 311 313 314 316 317 318 320 322 323 324 325 326 327 328 329 330 331 332 333 335 336 337 338 340 341 342 343 345 346 347 348 350 352 354 381 382 383 384 387 388 389 390 431 432 433 435 436 437 483 484 485 487 488 489 491 529 530 531 532 533 534 538 539 541 576 577 578 581 583 584 585 586 615 616 618 619 620 621 622 623 625 626 629 630 632 633 634 635 636 637 638 639 640 641 643 644 645 649 651 652 654 657 660 661 663 664 665 666 667 668 671 673 702 707 708 709 710 711 712 713 762 763 766 767 769 771 813 816 817 818 820 864 865 868 871 875 876 877 878 922 923 924 925 926 927 929 930 962 963 964 965 966 967 968 970 971 973 976 977 979 981 983 987 988 989 990 991 992 993 994 995 996 997 1001 1002 1004 1006 1007 1008 1012 1013 1014 1016 1017 1019 1020 1021 1022 1023 1057 1058 1063 1064 1065 1067 1068 1108 1109 1111 1112 1114 1115 1117 1120 1165 1169 1170 1171 1172 1175 1217 1218 1221 1223 1224 1227 1270 1271 1273 1275 1276 1277 1280 1282 1316 1317 1318 1319 1320 1321 1322 1323 1325 1326 1331 1332 1333 1334 1335 1337 1340 1342 1343 1344 1345 1346 1347 1348 1349 1350 1351 1352 1353 1354 1357 1358 1359 1360 1362 1363 1364 1365 1366 1367 1368 1369 1370 1399 1400 1401 1404 1405 1406 1407 1408 1411 1452 1454 1455 1457 1458 1459 1460 1499 1500 1504 1505 1506 1507 1508 1510 1511 1512 1553 1555 1556 1557 1558 1560 1561 1562 1567 1568 1604 1605 1606 1607 1608 1609 1610 1612 1615 1637 1640 1641 1642 1643 1644 1645 1647 1648 1649 1650 1651 1652 1653 1654 1655 1656 1657 1658 1659 1660 1661 1662 1663 1664 1665 1667 1669 1670 1672 1673 1676 1682 1684 1685 1686 1687 1688 1690 1691 1692 1693 1694 1695 1696 1699 1720 1726 1727 1728 1729 1730 1731 1733 1766 1770 1771 1772 1773 1774 1775 1778 1811 1812 1813 1814 1815 1816 1817 1818 1819 1823 1825 1826 1846 1851 1852 1853 1854 1855 1857 1858 1860 1862 1863 1864 1865 1868 1869 1870 1871 1872 1873 1874 1875 1876 1877 1878 1879 1880 1881 1882 1883 1884 1885 1886 1887 1888 1891 1892 1893 1894 1897 1898 1899 1900 1901 1902 1903 1904 1906 1908 1911 1914 1915 1916 1917 1923 1924 1925 1928 1929 1930 1932 1933 1934 1935 1936 1937 1939 1940 1941 1946 1948 1949 1954 1956 1958 1961 1962 1964 1965 1966 1967 1970 1971 1972 1973 1974 1976 1978 1979 1980 1981 1982 1983 1984 1985 
618 atoms in group surface
            fix freeze surface setforce 0 0 0 
            minimize 0 1e-4 100000 100000
Neighbor list info ...
  update: every = 1 steps, delay = 0 steps, check = yes
  max neighbors/atom: 2000, page size: 100000
  master list distance cutoff = 9.1553683
  ghost atom cutoff = 9.1553683
  binsize = 4.5776842, bins = 11 10 11
  1 neighbor lists, perpetual/occasional/extra = 1 0 0
  (1) pair eam/alloy, perpetual
      attributes: half, newton on
      pair build: half/bin/atomonly/newton
      stencil: half/bin/3d
      bin: standard
Per MPI rank memory allocation (min/avg/max) = 4.075 | 4.362 | 4.474 Mbytes
   Step          Temp          E_pair         E_mol          TotEng         Press          Volume    
         0   0             -9998.93        0             -9998.93       -1204.4623      69695.408    
       512   0             -10390.364      0             -10390.364     -24414.716      69695.408    
Loop time of 0.141242 on 192 procs for 512 steps with 1985 atoms

99.7% CPU use with 192 MPI tasks x 1 OpenMP threads

Minimization stats:
  Stopping criterion = linesearch alpha is zero
  Energy initial, next-to-last, final = 
     -9998.92997551613  -10390.3644237453  -10390.3644237453
  Force two-norm initial, final = 51.378468 0.027997298
  Force max component initial, final = 3.577235 0.0084392928
  Final line search alpha, max atom move = 1.5258789e-05 1.2877339e-07
  Iterations, force evaluations = 512 924

MPI task timing breakdown:
Section |  min time  |  avg time  |  max time  |%varavg| %total
---------------------------------------------------------------
Pair    | 0.043478   | 0.058359   | 0.084042   |   5.0 | 41.32
Neigh   | 1.862e-05  | 0.00041884 | 0.0011653  |   0.0 |  0.30
Comm    | 0.010929   | 0.048637   | 0.066757   |   5.6 | 34.44
Output  | 0          | 0          | 0          |   0.0 |  0.00
Modify  | 4.348e-05  | 6.7089e-05 | 0.00011232 |   0.0 |  0.05
Other   |            | 0.03376    |            |       | 23.90

Nlocal:        10.3385 ave          24 max           0 min
Histogram: 52 16 12 5 12 16 16 40 12 11
Nghost:        353.854 ave         822 max          35 min
Histogram: 16 24 34 30 32 20 10 11 4 11
Neighs:        654.458 ave        2013 max           0 min
Histogram: 68 18 16 15 13 16 16 18 7 5

Total # of neighbors = 125656
Ave neighs/atom = 63.302771
Neighbor list builds = 24
Dangerous builds = 0
            unfix freeze
            compute force all property/atom fx fy fz
            dump fcal all custom 1 dump.force id type x y z fx fy fz
            run 1 
WARNING: No fixes with time integration, atoms won't move (src/verlet.cpp:60)
Per MPI rank memory allocation (min/avg/max) = 2.95 | 3.237 | 3.349 Mbytes
   Step          Temp          E_pair         E_mol          TotEng         Press          Volume    
       512   0             -10390.364      0             -10390.364     -24414.716      69695.408    
       513   0             -10390.364      0             -10390.364     -24414.716      69695.408    
Loop time of 0.00135632 on 192 procs for 1 steps with 1985 atoms

Performance: 63.702 ns/day, 0.377 hours/ns, 737.288 timesteps/s, 1.464 Matom-step/s
99.8% CPU use with 192 MPI tasks x 1 OpenMP threads

MPI task timing breakdown:
Section |  min time  |  avg time  |  max time  |%varavg| %total
---------------------------------------------------------------
Pair    | 5.5015e-05 | 7.8831e-05 | 0.00012605 |   0.0 |  5.81
Neigh   | 0          | 0          | 0          |   0.0 |  0.00
Comm    | 1.3459e-05 | 6.7268e-05 | 9.9211e-05 |   0.0 |  4.96
Output  | 0.00011827 | 0.00059097 | 0.0012415  |   0.0 | 43.57
Modify  | 1.47e-07   | 2.8409e-07 | 7.95e-07   |   0.0 |  0.02
Other   |            | 0.000619   |            |       | 45.64

Nlocal:        10.3385 ave          24 max           0 min
Histogram: 52 16 12 5 13 15 15 40 14 10
Nghost:        353.698 ave         822 max          35 min
Histogram: 16 24 33 31 32 21 9 12 3 11
Neighs:        654.745 ave        2023 max           0 min
Histogram: 68 18 16 16 14 15 12 21 8 4

Total # of neighbors = 125711
Ave neighs/atom = 63.330479
Neighbor list builds = 0
Dangerous builds = 0
            
Total wall time: 0:00:00
                                                                                                                                                                                                                                                                                                                                                                                                                                                                                                                                                                                                                                                                                                                                                                                                                                                                                                                                                                                                                                                                                                                                                                                                                                                                                                                                                                                                                                                                                                                                                                                                                                                                                                                                                                                                                                                                                                                                                                                                                                                                                                                                                                                                                                                                                                                                                                                                                                                                                                                                                                                                                                                                                                                                                                                                                                                                                                                                                                                                                                                                                                                                                                                                                                                                                                                                                                                                                                                                                                                                                                                                                                                                                                                                                                                                                                                                                                                                                                                                                                                                                                                                                                                                                                                                                                                                                                                                                                                                                                                                                                                                                                                                                                                                                                                                                                                                                                                                                                                                                                                                                                                                                                                                                                                                                                                                                                                                                                                                                                                                                                                                                                                                                                                                                                                                                                                                                                                                                                                                                                                                                                                                                                                                                                                                                                                                                                                                                                                                                                                                                                                                                                                                                                                                                                                                                                                                                                                                                                                                                                                                                                                                                                                                                                                                                                                                                                                                                                                                                                                                                                                                                                                                                                                                                                                                                                                                                                                                                                                                                                                                                                                                                                                                                                                                                                                                                                                                                                                                                                                                                                                                                                                                                                                                                                                                                                                                                                                                                                                                                                                                                                                                                                                                                                                                                                                                                                                                                                                                                                                                                                                                                                                                                                                                                                                                                                                                                                                                                                                                                                                                                                                                                                                                                                                                                                                                                                                                                                                                                                                                                                                                                                                                                                                                                                                                                                                                                                                                                                                                                                                                                                                                                                                                                                                                                                                                                                                                                                                                                                                                                                                                                                                                                                                                                                                                                                                                                                                                                                                                                                                                                                                                                                                                                                                                                                                                                                                                                                                                                                                                                                                                                                                                                                                                                                        
Total wall time: 0:00:00
