LAMMPS (2 Aug 2023)
WARNING: Using I/O redirection is unreliable with parallel runs. Better to use the -in switch to read input files. (src/lammps.cpp:537)
OMP_NUM_THREADS environment is not set. Defaulting to 1 thread. (src/comm.cpp:98)
  using 1 OpenMP thread(s) per MPI task

    dimension 3
    units metal
    boundary s s s
    atom_style atomic
    timestep 0.001
    region myregion block 66.43564 104.25670000000001 9.7583 44.3932 88.08102086783857 124.80669295083845  units box
    create_box 5 myregion
Created orthogonal box = (66.43564 9.7583 88.081021) to (104.2567 44.3932 124.80669)
  6 by 4 by 4 MPI processor grid
    mass 1 91.224
    mass 2 63.546
    mass 3 58.693
    mass 4 26.982
    mass 5 47.867 
    pair_style eam/alloy
    pair_coeff * * ZrTiCuNiAl_Zhou04.eam.alloy Zr Cu Ni Al Ti
Reading eam/alloy potential file ZrTiCuNiAl_Zhou04.eam.alloy with DATE: 2018-03-30
    create_atoms 3 single 82.0488 15.9124 95.23951287307509
Created 1 atoms
  using lattice units in orthogonal box = (66.431858 9.7548365 88.077348) to (104.26048 44.396663 124.81037)
  create_atoms CPU = 0.000 seconds
create_atoms 2 single 74.69786 20.2794 94.00984103336837
Created 1 atoms
  using lattice units in orthogonal box = (66.431858 9.7548365 88.077348) to (104.26048 44.396663 124.81037)
  create_atoms CPU = 0.000 seconds
create_atoms 1 single 80.5822 20.3368 94.20771092943436
Created 1 atoms
  using lattice units in orthogonal box = (66.431858 9.7548365 88.077348) to (104.26048 44.396663 124.81037)
  create_atoms CPU = 0.000 seconds
create_atoms 1 single 77.46764 19.709 93.75170934791967
Created 1 atoms
  using lattice units in orthogonal box = (66.431858 9.7548365 88.077348) to (104.26048 44.396663 124.81037)
  create_atoms CPU = 0.000 seconds
create_atoms 1 single 76.67148 17.465 95.28217242157284
Created 1 atoms
  using lattice units in orthogonal box = (66.431858 9.7548365 88.077348) to (104.26048 44.396663 124.81037)
  create_atoms CPU = 0.000 seconds
create_atoms 1 single 79.69864 17.5817 94.70430120757796
Created 1 atoms
  using lattice units in orthogonal box = (66.431858 9.7548365 88.077348) to (104.26048 44.396663 124.81037)
  create_atoms CPU = 0.000 seconds
create_atoms 2 single 79.12874 21.6955 95.50675630674662
Created 1 atoms
  using lattice units in orthogonal box = (66.431858 9.7548365 88.077348) to (104.26048 44.396663 124.81037)
  create_atoms CPU = 0.000 seconds
create_atoms 1 single 82.29438 19.1917 92.66461565938137
Created 1 atoms
  using lattice units in orthogonal box = (66.431858 9.7548365 88.077348) to (104.26048 44.396663 124.81037)
  create_atoms CPU = 0.000 seconds
create_atoms 1 single 80.11158 21.4715 91.47387583480851
Created 1 atoms
  using lattice units in orthogonal box = (66.431858 9.7548365 88.077348) to (104.26048 44.396663 124.81037)
  create_atoms CPU = 0.000 seconds
create_atoms 1 single 85.33748 20.2323 92.96592460629502
Created 1 atoms
  using lattice units in orthogonal box = (66.431858 9.7548365 88.077348) to (104.26048 44.396663 124.81037)
  create_atoms CPU = 0.000 seconds
create_atoms 2 single 83.04744 21.5991 93.91996606226148
Created 1 atoms
  using lattice units in orthogonal box = (66.431858 9.7548365 88.077348) to (104.26048 44.396663 124.81037)
  create_atoms CPU = 0.000 seconds
create_atoms 3 single 82.47876000000001 18.3724 95.34398734985719
Created 1 atoms
  using lattice units in orthogonal box = (66.431858 9.7548365 88.077348) to (104.26048 44.396663 124.81037)
  create_atoms CPU = 0.000 seconds
create_atoms 3 single 84.41936000000001 17.4729 93.96687085709031
Created 1 atoms
  using lattice units in orthogonal box = (66.431858 9.7548365 88.077348) to (104.26048 44.396663 124.81037)
  create_atoms CPU = 0.000 seconds
create_atoms 1 single 84.81364 19.688 95.52125226982838
Created 1 atoms
  using lattice units in orthogonal box = (66.431858 9.7548365 88.077348) to (104.26048 44.396663 124.81037)
  create_atoms CPU = 0.000 seconds
create_atoms 1 single 87.29308 18.1119 94.89285227023423
Created 1 atoms
  using lattice units in orthogonal box = (66.431858 9.7548365 88.077348) to (104.26048 44.396663 124.81037)
  create_atoms CPU = 0.000 seconds
create_atoms 1 single 88.46624 21.1453 94.12860438804535
Created 1 atoms
  using lattice units in orthogonal box = (66.431858 9.7548365 88.077348) to (104.26048 44.396663 124.81037)
  create_atoms CPU = 0.000 seconds
create_atoms 2 single 75.0088 25.1451 92.92378277076449
Created 1 atoms
  using lattice units in orthogonal box = (66.431858 9.7548365 88.077348) to (104.26048 44.396663 124.81037)
  create_atoms CPU = 0.000 seconds
create_atoms 1 single 71.41423999999999 23.9602 94.54277476180981
Created 1 atoms
  using lattice units in orthogonal box = (66.431858 9.7548365 88.077348) to (104.26048 44.396663 124.81037)
  create_atoms CPU = 0.000 seconds
create_atoms 3 single 72.92891999999999 26.0015 93.64785612669822
Created 1 atoms
  using lattice units in orthogonal box = (66.431858 9.7548365 88.077348) to (104.26048 44.396663 124.81037)
  create_atoms CPU = 0.000 seconds
create_atoms 1 single 73.83218000000001 23.1089 93.61927837090848
Created 1 atoms
  using lattice units in orthogonal box = (66.431858 9.7548365 88.077348) to (104.26048 44.396663 124.81037)
  create_atoms CPU = 0.000 seconds
create_atoms 1 single 76.05648000000001 26.5701 95.1765589762629
Created 1 atoms
  using lattice units in orthogonal box = (66.431858 9.7548365 88.077348) to (104.26048 44.396663 124.81037)
  create_atoms CPU = 0.000 seconds
create_atoms 2 single 76.51107999999999 22.105 94.10489313414732
Created 1 atoms
  using lattice units in orthogonal box = (66.431858 9.7548365 88.077348) to (104.26048 44.396663 124.81037)
  create_atoms CPU = 0.000 seconds
create_atoms 1 single 75.65074 23.0817 91.60112968214764
Created 1 atoms
  using lattice units in orthogonal box = (66.431858 9.7548365 88.077348) to (104.26048 44.396663 124.81037)
  create_atoms CPU = 0.000 seconds
create_atoms 3 single 78.34446 22.1484 92.87812048705695
Created 1 atoms
  using lattice units in orthogonal box = (66.431858 9.7548365 88.077348) to (104.26048 44.396663 124.81037)
  create_atoms CPU = 0.000 seconds
create_atoms 5 single 77.83684 23.4759 90.44248806154152
Created 1 atoms
  using lattice units in orthogonal box = (66.431858 9.7548365 88.077348) to (104.26048 44.396663 124.81037)
  create_atoms CPU = 0.000 seconds
create_atoms 4 single 79.10814 25.388 92.19184017772922
Created 1 atoms
  using lattice units in orthogonal box = (66.431858 9.7548365 88.077348) to (104.26048 44.396663 124.81037)
  create_atoms CPU = 0.000 seconds
create_atoms 1 single 76.16088 26.04 91.12234873007591
Created 1 atoms
  using lattice units in orthogonal box = (66.431858 9.7548365 88.077348) to (104.26048 44.396663 124.81037)
  create_atoms CPU = 0.000 seconds
create_atoms 1 single 77.88886 24.5272 94.10820649713745
Created 1 atoms
  using lattice units in orthogonal box = (66.431858 9.7548365 88.077348) to (104.26048 44.396663 124.81037)
  create_atoms CPU = 0.000 seconds
create_atoms 1 single 79.91764 26.8914 94.7172440317581
Created 1 atoms
  using lattice units in orthogonal box = (66.431858 9.7548365 88.077348) to (104.26048 44.396663 124.81037)
  create_atoms CPU = 0.000 seconds
create_atoms 1 single 80.93522 23.4057 93.98385184241465
Created 1 atoms
  using lattice units in orthogonal box = (66.431858 9.7548365 88.077348) to (104.26048 44.396663 124.81037)
  create_atoms CPU = 0.000 seconds
create_atoms 2 single 80.94958 24.0492 91.35480185235123
Created 1 atoms
  using lattice units in orthogonal box = (66.431858 9.7548365 88.077348) to (104.26048 44.396663 124.81037)
  create_atoms CPU = 0.000 seconds
create_atoms 1 single 82.96234 22.0521 91.28636019808664
Created 1 atoms
  using lattice units in orthogonal box = (66.431858 9.7548365 88.077348) to (104.26048 44.396663 124.81037)
  create_atoms CPU = 0.000 seconds
create_atoms 1 single 80.1166 26.5062 90.08102086783857
Created 1 atoms
  using lattice units in orthogonal box = (66.431858 9.7548365 88.077348) to (104.26048 44.396663 124.81037)
  create_atoms CPU = 0.000 seconds
create_atoms 2 single 83.0433 24.908 90.7219495212391
Created 1 atoms
  using lattice units in orthogonal box = (66.431858 9.7548365 88.077348) to (104.26048 44.396663 124.81037)
  create_atoms CPU = 0.000 seconds
create_atoms 2 single 84.7897 26.2581 92.57743279570394
Created 1 atoms
  using lattice units in orthogonal box = (66.431858 9.7548365 88.077348) to (104.26048 44.396663 124.81037)
  create_atoms CPU = 0.000 seconds
create_atoms 1 single 83.7001 24.1092 93.50569214590357
Created 1 atoms
  using lattice units in orthogonal box = (66.431858 9.7548365 88.077348) to (104.26048 44.396663 124.81037)
  create_atoms CPU = 0.000 seconds
create_atoms 1 single 81.87356 26.544 92.9666494044491
Created 1 atoms
  using lattice units in orthogonal box = (66.431858 9.7548365 88.077348) to (104.26048 44.396663 124.81037)
  create_atoms CPU = 0.000 seconds
create_atoms 1 single 86.11516 22.4328 95.31085371995601
Created 1 atoms
  using lattice units in orthogonal box = (66.431858 9.7548365 88.077348) to (104.26048 44.396663 124.81037)
  create_atoms CPU = 0.000 seconds
create_atoms 1 single 84.83972000000001 26.5023 95.16009570390577
Created 1 atoms
  using lattice units in orthogonal box = (66.431858 9.7548365 88.077348) to (104.26048 44.396663 124.81037)
  create_atoms CPU = 0.000 seconds
create_atoms 1 single 86.09048 23.312 92.49791208394117
Created 1 atoms
  using lattice units in orthogonal box = (66.431858 9.7548365 88.077348) to (104.26048 44.396663 124.81037)
  create_atoms CPU = 0.000 seconds
create_atoms 1 single 87.40758000000001 26.0047 92.34725761048435
Created 1 atoms
  using lattice units in orthogonal box = (66.431858 9.7548365 88.077348) to (104.26048 44.396663 124.81037)
  create_atoms CPU = 0.000 seconds
create_atoms 5 single 89.55042 23.7951 93.39262363386587
Created 1 atoms
  using lattice units in orthogonal box = (66.431858 9.7548365 88.077348) to (104.26048 44.396663 124.81037)
  create_atoms CPU = 0.000 seconds
create_atoms 3 single 86.79428 25.2056 94.53407718396076
Created 1 atoms
  using lattice units in orthogonal box = (66.431858 9.7548365 88.077348) to (104.26048 44.396663 124.81037)
  create_atoms CPU = 0.000 seconds
create_atoms 1 single 89.6137 26.3958 95.28403618825477
Created 1 atoms
  using lattice units in orthogonal box = (66.431858 9.7548365 88.077348) to (104.26048 44.396663 124.81037)
  create_atoms CPU = 0.000 seconds
create_atoms 4 single 90.81954 26.2603 93.01914549932376
Created 1 atoms
  using lattice units in orthogonal box = (66.431858 9.7548365 88.077348) to (104.26048 44.396663 124.81037)
  create_atoms CPU = 0.000 seconds
create_atoms 1 single 74.20826 27.7437 92.2998351026883
Created 1 atoms
  using lattice units in orthogonal box = (66.431858 9.7548365 88.077348) to (104.26048 44.396663 124.81037)
  create_atoms CPU = 0.000 seconds
create_atoms 1 single 73.63624 30.8619 92.55320382883872
Created 1 atoms
  using lattice units in orthogonal box = (66.431858 9.7548365 88.077348) to (104.26048 44.396663 124.81037)
  create_atoms CPU = 0.000 seconds
create_atoms 1 single 72.6233 28.7254 94.06689300235443
Created 1 atoms
  using lattice units in orthogonal box = (66.431858 9.7548365 88.077348) to (104.26048 44.396663 124.81037)
  create_atoms CPU = 0.000 seconds
create_atoms 1 single 71.49432 31.4193 94.36385316034357
Created 1 atoms
  using lattice units in orthogonal box = (66.431858 9.7548365 88.077348) to (104.26048 44.396663 124.81037)
  create_atoms CPU = 0.000 seconds
create_atoms 2 single 74.25962 30.8369 95.36821631672241
Created 1 atoms
  using lattice units in orthogonal box = (66.431858 9.7548365 88.077348) to (104.26048 44.396663 124.81037)
  create_atoms CPU = 0.000 seconds
create_atoms 1 single 78.53878 28.1855 91.50338547393922
Created 1 atoms
  using lattice units in orthogonal box = (66.431858 9.7548365 88.077348) to (104.26048 44.396663 124.81037)
  create_atoms CPU = 0.000 seconds
create_atoms 3 single 77.20488 27.54 93.41064004512462
Created 1 atoms
  using lattice units in orthogonal box = (66.431858 9.7548365 88.077348) to (104.26048 44.396663 124.81037)
  create_atoms CPU = 0.000 seconds
create_atoms 1 single 76.14824 29.784 91.78129379473518
Created 1 atoms
  using lattice units in orthogonal box = (66.431858 9.7548365 88.077348) to (104.26048 44.396663 124.81037)
  create_atoms CPU = 0.000 seconds
create_atoms 1 single 78.90508 31.4248 92.17434147943767
Created 1 atoms
  using lattice units in orthogonal box = (66.431858 9.7548365 88.077348) to (104.26048 44.396663 124.81037)
  create_atoms CPU = 0.000 seconds
create_atoms 1 single 76.22056 29.4925 94.80504815099617
Created 1 atoms
  using lattice units in orthogonal box = (66.431858 9.7548365 88.077348) to (104.26048 44.396663 124.81037)
  create_atoms CPU = 0.000 seconds
create_atoms 3 single 78.63228 29.7214 94.22241397770298
Created 1 atoms
  using lattice units in orthogonal box = (66.431858 9.7548365 88.077348) to (104.26048 44.396663 124.81037)
  create_atoms CPU = 0.000 seconds
create_atoms 3 single 80.68824000000001 31.6307 95.01130499713086
Created 1 atoms
  using lattice units in orthogonal box = (66.431858 9.7548365 88.077348) to (104.26048 44.396663 124.81037)
  create_atoms CPU = 0.000 seconds
create_atoms 1 single 81.0399 29.3085 93.75057037939182
Created 1 atoms
  using lattice units in orthogonal box = (66.431858 9.7548365 88.077348) to (104.26048 44.396663 124.81037)
  create_atoms CPU = 0.000 seconds
create_atoms 1 single 83.85854 28.8435 93.30492305722125
Created 1 atoms
  using lattice units in orthogonal box = (66.431858 9.7548365 88.077348) to (104.26048 44.396663 124.81037)
  create_atoms CPU = 0.000 seconds
create_atoms 3 single 82.7834 27.526 90.82963381841786
Created 1 atoms
  using lattice units in orthogonal box = (66.431858 9.7548365 88.077348) to (104.26048 44.396663 124.81037)
  create_atoms CPU = 0.000 seconds
create_atoms 3 single 81.04678 29.1657 91.18602742504218
Created 1 atoms
  using lattice units in orthogonal box = (66.431858 9.7548365 88.077348) to (104.26048 44.396663 124.81037)
  create_atoms CPU = 0.000 seconds
create_atoms 2 single 84.94966000000001 30.9702 92.39354114975252
Created 1 atoms
  using lattice units in orthogonal box = (66.431858 9.7548365 88.077348) to (104.26048 44.396663 124.81037)
  create_atoms CPU = 0.000 seconds
create_atoms 1 single 82.27346 31.6946 92.57474068827447
Created 1 atoms
  using lattice units in orthogonal box = (66.431858 9.7548365 88.077348) to (104.26048 44.396663 124.81037)
  create_atoms CPU = 0.000 seconds
create_atoms 1 single 85.59904 28.4606 91.54728753355825
Created 1 atoms
  using lattice units in orthogonal box = (66.431858 9.7548365 88.077348) to (104.26048 44.396663 124.81037)
  create_atoms CPU = 0.000 seconds
create_atoms 2 single 89.07458 28.2569 93.0839631628179
Created 1 atoms
  using lattice units in orthogonal box = (66.431858 9.7548365 88.077348) to (104.26048 44.396663 124.81037)
  create_atoms CPU = 0.000 seconds
create_atoms 1 single 90.57204 30.7715 93.8474862468527
Created 1 atoms
  using lattice units in orthogonal box = (66.431858 9.7548365 88.077348) to (104.26048 44.396663 124.81037)
  create_atoms CPU = 0.000 seconds
create_atoms 3 single 87.55056 30.1995 93.02463325677613
Created 1 atoms
  using lattice units in orthogonal box = (66.431858 9.7548365 88.077348) to (104.26048 44.396663 124.81037)
  create_atoms CPU = 0.000 seconds
create_atoms 1 single 86.3988 30.279 95.11785032578179
Created 1 atoms
  using lattice units in orthogonal box = (66.431858 9.7548365 88.077348) to (104.26048 44.396663 124.81037)
  create_atoms CPU = 0.000 seconds
create_atoms 3 single 86.90428 27.82 94.18513864406418
Created 1 atoms
  using lattice units in orthogonal box = (66.431858 9.7548365 88.077348) to (104.26048 44.396663 124.81037)
  create_atoms CPU = 0.000 seconds
create_atoms 1 single 92.04658 28.1667 95.3805378853419
Created 1 atoms
  using lattice units in orthogonal box = (66.431858 9.7548365 88.077348) to (104.26048 44.396663 124.81037)
  create_atoms CPU = 0.000 seconds
create_atoms 1 single 73.9974 33.3611 94.176648151402
Created 1 atoms
  using lattice units in orthogonal box = (66.431858 9.7548365 88.077348) to (104.26048 44.396663 124.81037)
  create_atoms CPU = 0.000 seconds
create_atoms 5 single 71.6523 34.2044 95.14114740930603
Created 1 atoms
  using lattice units in orthogonal box = (66.431858 9.7548365 88.077348) to (104.26048 44.396663 124.81037)
  create_atoms CPU = 0.000 seconds
create_atoms 1 single 76.76182 32.2462 93.67115321022249
Created 1 atoms
  using lattice units in orthogonal box = (66.431858 9.7548365 88.077348) to (104.26048 44.396663 124.81037)
  create_atoms CPU = 0.000 seconds
create_atoms 1 single 78.04952 34.3846 92.37272908847085
Created 1 atoms
  using lattice units in orthogonal box = (66.431858 9.7548365 88.077348) to (104.26048 44.396663 124.81037)
  create_atoms CPU = 0.000 seconds
create_atoms 3 single 78.10328 36.4131 94.14786331042538
Created 1 atoms
  using lattice units in orthogonal box = (66.431858 9.7548365 88.077348) to (104.26048 44.396663 124.81037)
  create_atoms CPU = 0.000 seconds
create_atoms 2 single 76.68334 34.8153 95.05272203450733
Created 1 atoms
  using lattice units in orthogonal box = (66.431858 9.7548365 88.077348) to (104.26048 44.396663 124.81037)
  create_atoms CPU = 0.000 seconds
create_atoms 5 single 79.35964 33.9243 95.24841753611103
Created 1 atoms
  using lattice units in orthogonal box = (66.431858 9.7548365 88.077348) to (104.26048 44.396663 124.81037)
  create_atoms CPU = 0.000 seconds
create_atoms 1 single 80.79402 36.1162 94.29655047460683
Created 1 atoms
  using lattice units in orthogonal box = (66.431858 9.7548365 88.077348) to (104.26048 44.396663 124.81037)
  create_atoms CPU = 0.000 seconds
create_atoms 3 single 80.72456 33.4374 93.51749600155586
Created 1 atoms
  using lattice units in orthogonal box = (66.431858 9.7548365 88.077348) to (104.26048 44.396663 124.81037)
  create_atoms CPU = 0.000 seconds
create_atoms 1 single 80.07958 33.7213 90.91578125616087
Created 1 atoms
  using lattice units in orthogonal box = (66.431858 9.7548365 88.077348) to (104.26048 44.396663 124.81037)
  create_atoms CPU = 0.000 seconds
create_atoms 5 single 84.43408 33.4552 91.79071617073832
Created 1 atoms
  using lattice units in orthogonal box = (66.431858 9.7548365 88.077348) to (104.26048 44.396663 124.81037)
  create_atoms CPU = 0.000 seconds
create_atoms 1 single 82.7472 34.9426 92.99315630837003
Created 1 atoms
  using lattice units in orthogonal box = (66.431858 9.7548365 88.077348) to (104.26048 44.396663 124.81037)
  create_atoms CPU = 0.000 seconds
create_atoms 1 single 85.05526 33.0126 94.79003447494719
Created 1 atoms
  using lattice units in orthogonal box = (66.431858 9.7548365 88.077348) to (104.26048 44.396663 124.81037)
  create_atoms CPU = 0.000 seconds
create_atoms 2 single 86.05202 35.2334 93.70532226605805
Created 1 atoms
  using lattice units in orthogonal box = (66.431858 9.7548365 88.077348) to (104.26048 44.396663 124.81037)
  create_atoms CPU = 0.000 seconds
create_atoms 1 single 87.60414 32.6833 93.87440732114739
Created 1 atoms
  using lattice units in orthogonal box = (66.431858 9.7548365 88.077348) to (104.26048 44.396663 124.81037)
  create_atoms CPU = 0.000 seconds
create_atoms 4 single 92.21328000000001 33.1035 95.35413452401441
Created 1 atoms
  using lattice units in orthogonal box = (66.431858 9.7548365 88.077348) to (104.26048 44.396663 124.81037)
  create_atoms CPU = 0.000 seconds
create_atoms 1 single 75.52705999999999 15.9381 97.31492061600888
Created 1 atoms
  using lattice units in orthogonal box = (66.431858 9.7548365 88.077348) to (104.26048 44.396663 124.81037)
  create_atoms CPU = 0.000 seconds
create_atoms 1 single 75.39972 15.4962 100.04264669762169
Created 1 atoms
  using lattice units in orthogonal box = (66.431858 9.7548365 88.077348) to (104.26048 44.396663 124.81037)
  create_atoms CPU = 0.000 seconds
create_atoms 3 single 78.19728 15.7812 97.39961845744371
Created 1 atoms
  using lattice units in orthogonal box = (66.431858 9.7548365 88.077348) to (104.26048 44.396663 124.81037)
  create_atoms CPU = 0.000 seconds
create_atoms 1 single 80.87048 14.0932 98.80935086714454
Created 1 atoms
  using lattice units in orthogonal box = (66.431858 9.7548365 88.077348) to (104.26048 44.396663 124.81037)
  create_atoms CPU = 0.000 seconds
create_atoms 2 single 80.01844000000001 15.4007 96.33250848943955
Created 1 atoms
  using lattice units in orthogonal box = (66.431858 9.7548365 88.077348) to (104.26048 44.396663 124.81037)
  create_atoms CPU = 0.000 seconds
create_atoms 2 single 78.07602 16.0342 99.91736015955794
Created 1 atoms
  using lattice units in orthogonal box = (66.431858 9.7548365 88.077348) to (104.26048 44.396663 124.81037)
  create_atoms CPU = 0.000 seconds
create_atoms 4 single 77.94854 13.7295 99.09450716948137
Created 1 atoms
  using lattice units in orthogonal box = (66.431858 9.7548365 88.077348) to (104.26048 44.396663 124.81037)
  create_atoms CPU = 0.000 seconds
create_atoms 1 single 83.36512 14.6415 97.81751636457206
Created 1 atoms
  using lattice units in orthogonal box = (66.431858 9.7548365 88.077348) to (104.26048 44.396663 124.81037)
  create_atoms CPU = 0.000 seconds
create_atoms 1 single 87.53644 15.7505 98.90709507535296
Created 1 atoms
  using lattice units in orthogonal box = (66.431858 9.7548365 88.077348) to (104.26048 44.396663 124.81037)
  create_atoms CPU = 0.000 seconds
create_atoms 1 single 84.82594 16.7062 96.59240039897675
Created 1 atoms
  using lattice units in orthogonal box = (66.431858 9.7548365 88.077348) to (104.26048 44.396663 124.81037)
  create_atoms CPU = 0.000 seconds
create_atoms 1 single 85.95626 14.1365 100.43207039155375
Created 1 atoms
  using lattice units in orthogonal box = (66.431858 9.7548365 88.077348) to (104.26048 44.396663 124.81037)
  create_atoms CPU = 0.000 seconds
create_atoms 1 single 83.37702 15.7682 100.5629482296633
Created 1 atoms
  using lattice units in orthogonal box = (66.431858 9.7548365 88.077348) to (104.26048 44.396663 124.81037)
  create_atoms CPU = 0.000 seconds
create_atoms 2 single 85.16650000000001 16.7666 99.39571257380159
Created 1 atoms
  using lattice units in orthogonal box = (66.431858 9.7548365 88.077348) to (104.26048 44.396663 124.81037)
  create_atoms CPU = 0.000 seconds
create_atoms 5 single 90.86368 15.2185 100.18802049881302
Created 1 atoms
  using lattice units in orthogonal box = (66.431858 9.7548365 88.077348) to (104.26048 44.396663 124.81037)
  create_atoms CPU = 0.000 seconds
create_atoms 2 single 70.27122 20.6022 97.93451949516053
Created 1 atoms
  using lattice units in orthogonal box = (66.431858 9.7548365 88.077348) to (104.26048 44.396663 124.81037)
  create_atoms CPU = 0.000 seconds
create_atoms 2 single 71.21112000000001 21.1784 100.46251191402543
Created 1 atoms
  using lattice units in orthogonal box = (66.431858 9.7548365 88.077348) to (104.26048 44.396663 124.81037)
  create_atoms CPU = 0.000 seconds
create_atoms 5 single 72.27640000000001 19.6469 97.03131745257365
Created 1 atoms
  using lattice units in orthogonal box = (66.431858 9.7548365 88.077348) to (104.26048 44.396663 124.81037)
  create_atoms CPU = 0.000 seconds
create_atoms 5 single 74.47038 18.7403 96.12293828031471
Created 1 atoms
  using lattice units in orthogonal box = (66.431858 9.7548365 88.077348) to (104.26048 44.396663 124.81037)
  create_atoms CPU = 0.000 seconds
create_atoms 1 single 77.29446 18.257 98.40988354164871
Created 1 atoms
  using lattice units in orthogonal box = (66.431858 9.7548365 88.077348) to (104.26048 44.396663 124.81037)
  create_atoms CPU = 0.000 seconds
create_atoms 3 single 74.36472 17.7665 98.5531864909712
Created 1 atoms
  using lattice units in orthogonal box = (66.431858 9.7548365 88.077348) to (104.26048 44.396663 124.81037)
  create_atoms CPU = 0.000 seconds
create_atoms 1 single 75.35558 20.3271 98.90668090497918
Created 1 atoms
  using lattice units in orthogonal box = (66.431858 9.7548365 88.077348) to (104.26048 44.396663 124.81037)
  create_atoms CPU = 0.000 seconds
create_atoms 1 single 73.86952 21.8258 96.18723823084164
Created 1 atoms
  using lattice units in orthogonal box = (66.431858 9.7548365 88.077348) to (104.26048 44.396663 124.81037)
  create_atoms CPU = 0.000 seconds
create_atoms 1 single 72.90702 21.9549 99.03621268937403
Created 1 atoms
  using lattice units in orthogonal box = (66.431858 9.7548365 88.077348) to (104.26048 44.396663 124.81037)
  create_atoms CPU = 0.000 seconds
create_atoms 1 single 73.11664 19.1803 100.08592750168009
Created 1 atoms
  using lattice units in orthogonal box = (66.431858 9.7548365 88.077348) to (104.26048 44.396663 124.81037)
  create_atoms CPU = 0.000 seconds
create_atoms 2 single 76.62308 17.9165 100.67001127128144
Created 1 atoms
  using lattice units in orthogonal box = (66.431858 9.7548365 88.077348) to (104.26048 44.396663 124.81037)
  create_atoms CPU = 0.000 seconds
create_atoms 2 single 78.13346 20.1295 100.75719413495885
Created 1 atoms
  using lattice units in orthogonal box = (66.431858 9.7548365 88.077348) to (104.26048 44.396663 124.81037)
  create_atoms CPU = 0.000 seconds
create_atoms 1 single 80.39380000000001 16.919 99.2937231192621
Created 1 atoms
  using lattice units in orthogonal box = (66.431858 9.7548365 88.077348) to (104.26048 44.396663 124.81037)
  create_atoms CPU = 0.000 seconds
create_atoms 2 single 79.16456 18.3743 96.92249418686703
Created 1 atoms
  using lattice units in orthogonal box = (66.431858 9.7548365 88.077348) to (104.26048 44.396663 124.81037)
  create_atoms CPU = 0.000 seconds
create_atoms 1 single 79.89976 19.9197 99.271875632046
Created 1 atoms
  using lattice units in orthogonal box = (66.431858 9.7548365 88.077348) to (104.26048 44.396663 124.81037)
  create_atoms CPU = 0.000 seconds
create_atoms 4 single 81.15942 19.9122 97.09375363641864
Created 1 atoms
  using lattice units in orthogonal box = (66.431858 9.7548365 88.077348) to (104.26048 44.396663 124.81037)
  create_atoms CPU = 0.000 seconds
create_atoms 1 single 77.08468 20.5134 96.47653623691615
Created 1 atoms
  using lattice units in orthogonal box = (66.431858 9.7548365 88.077348) to (104.26048 44.396663 124.81037)
  create_atoms CPU = 0.000 seconds
create_atoms 5 single 82.0715 21.8387 99.2015702110995
Created 1 atoms
  using lattice units in orthogonal box = (66.431858 9.7548365 88.077348) to (104.26048 44.396663 124.81037)
  create_atoms CPU = 0.000 seconds
create_atoms 5 single 82.07162 17.1939 97.53743364931384
Created 1 atoms
  using lattice units in orthogonal box = (66.431858 9.7548365 88.077348) to (104.26048 44.396663 124.81037)
  create_atoms CPU = 0.000 seconds
create_atoms 2 single 77.67739999999999 21.7588 98.98671932970916
Created 1 atoms
  using lattice units in orthogonal box = (66.431858 9.7548365 88.077348) to (104.26048 44.396663 124.81037)
  create_atoms CPU = 0.000 seconds
create_atoms 1 single 82.99716000000001 18.7631 100.13904485211538
Created 1 atoms
  using lattice units in orthogonal box = (66.431858 9.7548365 88.077348) to (104.26048 44.396663 124.81037)
  create_atoms CPU = 0.000 seconds
create_atoms 4 single 84.23004 19.1021 97.99022541043186
Created 1 atoms
  using lattice units in orthogonal box = (66.431858 9.7548365 88.077348) to (104.26048 44.396663 124.81037)
  create_atoms CPU = 0.000 seconds
create_atoms 4 single 84.82226 21.3298 99.53332068048483
Created 1 atoms
  using lattice units in orthogonal box = (66.431858 9.7548365 88.077348) to (104.26048 44.396663 124.81037)
  create_atoms CPU = 0.000 seconds
create_atoms 2 single 87.12936 18.3844 97.41483921867956
Created 1 atoms
  using lattice units in orthogonal box = (66.431858 9.7548365 88.077348) to (104.26048 44.396663 124.81037)
  create_atoms CPU = 0.000 seconds
create_atoms 1 single 86.57594 21.1242 98.05442181836534
Created 1 atoms
  using lattice units in orthogonal box = (66.431858 9.7548365 88.077348) to (104.26048 44.396663 124.81037)
  create_atoms CPU = 0.000 seconds
create_atoms 1 single 83.00136 21.8007 96.5393865911349
Created 1 atoms
  using lattice units in orthogonal box = (66.431858 9.7548365 88.077348) to (104.26048 44.396663 124.81037)
  create_atoms CPU = 0.000 seconds
create_atoms 1 single 87.29252 18.6846 99.96498975254086
Created 1 atoms
  using lattice units in orthogonal box = (66.431858 9.7548365 88.077348) to (104.26048 44.396663 124.81037)
  create_atoms CPU = 0.000 seconds
create_atoms 1 single 89.47986 16.9261 97.64470377611883
Created 1 atoms
  using lattice units in orthogonal box = (66.431858 9.7548365 88.077348) to (104.26048 44.396663 124.81037)
  create_atoms CPU = 0.000 seconds
create_atoms 1 single 90.44964 19.1416 96.28021947975176
Created 1 atoms
  using lattice units in orthogonal box = (66.431858 9.7548365 88.077348) to (104.26048 44.396663 124.81037)
  create_atoms CPU = 0.000 seconds
create_atoms 2 single 90.16654 21.5571 97.23954160798374
Created 1 atoms
  using lattice units in orthogonal box = (66.431858 9.7548365 88.077348) to (104.26048 44.396663 124.81037)
  create_atoms CPU = 0.000 seconds
create_atoms 3 single 87.8383 20.3645 96.28011593715834
Created 1 atoms
  using lattice units in orthogonal box = (66.431858 9.7548365 88.077348) to (104.26048 44.396663 124.81037)
  create_atoms CPU = 0.000 seconds
create_atoms 1 single 89.6763 19.7942 98.85677337494057
Created 1 atoms
  using lattice units in orthogonal box = (66.431858 9.7548365 88.077348) to (104.26048 44.396663 124.81037)
  create_atoms CPU = 0.000 seconds
create_atoms 3 single 89.82014000000001 17.6279 100.41519294882285
Created 1 atoms
  using lattice units in orthogonal box = (66.431858 9.7548365 88.077348) to (104.26048 44.396663 124.81037)
  create_atoms CPU = 0.000 seconds
create_atoms 1 single 92.27348 18.0389 99.76349586570444
Created 1 atoms
  using lattice units in orthogonal box = (66.431858 9.7548365 88.077348) to (104.26048 44.396663 124.81037)
  create_atoms CPU = 0.000 seconds
create_atoms 3 single 88.90688 20.9582 100.71971171613318
Created 1 atoms
  using lattice units in orthogonal box = (66.431858 9.7548365 88.077348) to (104.26048 44.396663 124.81037)
  create_atoms CPU = 0.000 seconds
create_atoms 1 single 92.9006 20.6585 98.62794424343569
Created 1 atoms
  using lattice units in orthogonal box = (66.431858 9.7548365 88.077348) to (104.26048 44.396663 124.81037)
  create_atoms CPU = 0.000 seconds
create_atoms 3 single 95.22018 18.2125 100.92420833817937
Created 1 atoms
  using lattice units in orthogonal box = (66.431858 9.7548365 88.077348) to (104.26048 44.396663 124.81037)
  create_atoms CPU = 0.000 seconds
create_atoms 1 single 70.13236 23.3632 98.59108308017066
Created 1 atoms
  using lattice units in orthogonal box = (66.431858 9.7548365 88.077348) to (104.26048 44.396663 124.81037)
  create_atoms CPU = 0.000 seconds
create_atoms 2 single 69.60216000000001 25.2034 96.4379148495626
Created 1 atoms
  using lattice units in orthogonal box = (66.431858 9.7548365 88.077348) to (104.26048 44.396663 124.81037)
  create_atoms CPU = 0.000 seconds
create_atoms 3 single 71.05268 22.2159 96.37661763424546
Created 1 atoms
  using lattice units in orthogonal box = (66.431858 9.7548365 88.077348) to (104.26048 44.396663 124.81037)
  create_atoms CPU = 0.000 seconds
create_atoms 1 single 69.10096 25.951 99.50743503212456
Created 1 atoms
  using lattice units in orthogonal box = (66.431858 9.7548365 88.077348) to (104.26048 44.396663 124.81037)
  create_atoms CPU = 0.000 seconds
create_atoms 3 single 71.77682 25.4754 99.96084804880321
Created 1 atoms
  using lattice units in orthogonal box = (66.431858 9.7548365 88.077348) to (104.26048 44.396663 124.81037)
  create_atoms CPU = 0.000 seconds
create_atoms 1 single 72.37908 24.5327 97.61964646850609
Created 1 atoms
  using lattice units in orthogonal box = (66.431858 9.7548365 88.077348) to (104.26048 44.396663 124.81037)
  create_atoms CPU = 0.000 seconds
create_atoms 1 single 75.55810000000001 23.4943 98.67298527158258
Created 1 atoms
  using lattice units in orthogonal box = (66.431858 9.7548365 88.077348) to (104.26048 44.396663 124.81037)
  create_atoms CPU = 0.000 seconds
create_atoms 5 single 74.21860000000001 24.9872 96.05180451862067
Created 1 atoms
  using lattice units in orthogonal box = (66.431858 9.7548365 88.077348) to (104.26048 44.396663 124.81037)
  create_atoms CPU = 0.000 seconds
create_atoms 1 single 71.5483 26.8112 95.57602630175873
Created 1 atoms
  using lattice units in orthogonal box = (66.431858 9.7548365 88.077348) to (104.26048 44.396663 124.81037)
  create_atoms CPU = 0.000 seconds
create_atoms 3 single 74.735 26.1544 98.35666264861997
Created 1 atoms
  using lattice units in orthogonal box = (66.431858 9.7548365 88.077348) to (104.26048 44.396663 124.81037)
  create_atoms CPU = 0.000 seconds
create_atoms 1 single 77.21152000000001 27.0373 98.18043315458317
Created 1 atoms
  using lattice units in orthogonal box = (66.431858 9.7548365 88.077348) to (104.26048 44.396663 124.81037)
  create_atoms CPU = 0.000 seconds
create_atoms 2 single 74.26776 24.8671 100.1871921580655
Created 1 atoms
  using lattice units in orthogonal box = (66.431858 9.7548365 88.077348) to (104.26048 44.396663 124.81037)
  create_atoms CPU = 0.000 seconds
create_atoms 1 single 77.04398 25.7151 100.72592427173964
Created 1 atoms
  using lattice units in orthogonal box = (66.431858 9.7548365 88.077348) to (104.26048 44.396663 124.81037)
  create_atoms CPU = 0.000 seconds
create_atoms 1 single 76.75786000000001 23.5709 96.24118392202449
Created 1 atoms
  using lattice units in orthogonal box = (66.431858 9.7548365 88.077348) to (104.26048 44.396663 124.81037)
  create_atoms CPU = 0.000 seconds
create_atoms 1 single 78.63042 24.3081 99.02637614299712
Created 1 atoms
  using lattice units in orthogonal box = (66.431858 9.7548365 88.077348) to (104.26048 44.396663 124.81037)
  create_atoms CPU = 0.000 seconds
create_atoms 3 single 79.35436 22.2292 97.86473178718121
Created 1 atoms
  using lattice units in orthogonal box = (66.431858 9.7548365 88.077348) to (104.26048 44.396663 124.81037)
  create_atoms CPU = 0.000 seconds
create_atoms 1 single 80.615 23.8727 96.70256971839811
Created 1 atoms
  using lattice units in orthogonal box = (66.431858 9.7548365 88.077348) to (104.26048 44.396663 124.81037)
  create_atoms CPU = 0.000 seconds
create_atoms 3 single 78.81866000000001 25.7349 96.84794351958944
Created 1 atoms
  using lattice units in orthogonal box = (66.431858 9.7548365 88.077348) to (104.26048 44.396663 124.81037)
  create_atoms CPU = 0.000 seconds
create_atoms 1 single 81.68242000000001 26.6735 97.66116704847597
Created 1 atoms
  using lattice units in orthogonal box = (66.431858 9.7548365 88.077348) to (104.26048 44.396663 124.81037)
  create_atoms CPU = 0.000 seconds
create_atoms 2 single 81.49426 24.4501 99.71607335790841
Created 1 atoms
  using lattice units in orthogonal box = (66.431858 9.7548365 88.077348) to (104.26048 44.396663 124.81037)
  create_atoms CPU = 0.000 seconds
create_atoms 1 single 80.3662 26.8663 99.83059146625429
Created 1 atoms
  using lattice units in orthogonal box = (66.431858 9.7548365 88.077348) to (104.26048 44.396663 124.81037)
  create_atoms CPU = 0.000 seconds
create_atoms 2 single 84.485 23.887 96.34897176179668
Created 1 atoms
  using lattice units in orthogonal box = (66.431858 9.7548365 88.077348) to (104.26048 44.396663 124.81037)
  create_atoms CPU = 0.000 seconds
create_atoms 1 single 83.61692000000001 24.0573 98.73127975168994
Created 1 atoms
  using lattice units in orthogonal box = (66.431858 9.7548365 88.077348) to (104.26048 44.396663 124.81037)
  create_atoms CPU = 0.000 seconds
create_atoms 2 single 86.26682 23.6015 98.8493183082128
Created 1 atoms
  using lattice units in orthogonal box = (66.431858 9.7548365 88.077348) to (104.26048 44.396663 124.81037)
  create_atoms CPU = 0.000 seconds
create_atoms 3 single 86.98646 24.6294 96.94268499258806
Created 1 atoms
  using lattice units in orthogonal box = (66.431858 9.7548365 88.077348) to (104.26048 44.396663 124.81037)
  create_atoms CPU = 0.000 seconds
create_atoms 2 single 82.45072 25.3987 95.67677324517695
Created 1 atoms
  using lattice units in orthogonal box = (66.431858 9.7548365 88.077348) to (104.26048 44.396663 124.81037)
  create_atoms CPU = 0.000 seconds
create_atoms 1 single 85.14332 26.2157 98.00026904199564
Created 1 atoms
  using lattice units in orthogonal box = (66.431858 9.7548365 88.077348) to (104.26048 44.396663 124.81037)
  create_atoms CPU = 0.000 seconds
create_atoms 1 single 83.77484 26.4833 100.4757653659859
Created 1 atoms
  using lattice units in orthogonal box = (66.431858 9.7548365 88.077348) to (104.26048 44.396663 124.81037)
  create_atoms CPU = 0.000 seconds
create_atoms 2 single 86.44030000000001 25.663 100.7495319830442
Created 1 atoms
  using lattice units in orthogonal box = (66.431858 9.7548365 88.077348) to (104.26048 44.396663 124.81037)
  create_atoms CPU = 0.000 seconds
create_atoms 1 single 88.98132 22.9123 98.73438602949317
Created 1 atoms
  using lattice units in orthogonal box = (66.431858 9.7548365 88.077348) to (104.26048 44.396663 124.81037)
  create_atoms CPU = 0.000 seconds
create_atoms 1 single 88.97936 23.707 95.88758596542306
Created 1 atoms
  using lattice units in orthogonal box = (66.431858 9.7548365 88.077348) to (104.26048 44.396663 124.81037)
  create_atoms CPU = 0.000 seconds
create_atoms 2 single 90.0387 25.5799 98.17494539713081
Created 1 atoms
  using lattice units in orthogonal box = (66.431858 9.7548365 88.077348) to (104.26048 44.396663 124.81037)
  create_atoms CPU = 0.000 seconds
create_atoms 3 single 92.28972 26.4433 97.49239262116696
Created 1 atoms
  using lattice units in orthogonal box = (66.431858 9.7548365 88.077348) to (104.26048 44.396663 124.81037)
  create_atoms CPU = 0.000 seconds
create_atoms 3 single 91.67374 21.9839 100.1521947614824
Created 1 atoms
  using lattice units in orthogonal box = (66.431858 9.7548365 88.077348) to (104.26048 44.396663 124.81037)
  create_atoms CPU = 0.000 seconds
create_atoms 5 single 90.93984 24.414 100.91685681404506
Created 1 atoms
  using lattice units in orthogonal box = (66.431858 9.7548365 88.077348) to (104.26048 44.396663 124.81037)
  create_atoms CPU = 0.000 seconds
create_atoms 5 single 88.28758 25.5504 99.49894453946239
Created 1 atoms
  using lattice units in orthogonal box = (66.431858 9.7548365 88.077348) to (104.26048 44.396663 124.81037)
  create_atoms CPU = 0.000 seconds
create_atoms 1 single 92.7973 26.1704 100.17228202460998
Created 1 atoms
  using lattice units in orthogonal box = (66.431858 9.7548365 88.077348) to (104.26048 44.396663 124.81037)
  create_atoms CPU = 0.000 seconds
create_atoms 1 single 91.9017 23.7602 98.13508149865598
Created 1 atoms
  using lattice units in orthogonal box = (66.431858 9.7548365 88.077348) to (104.26048 44.396663 124.81037)
  create_atoms CPU = 0.000 seconds
create_atoms 1 single 91.66436 21.9729 95.62355235214821
Created 1 atoms
  using lattice units in orthogonal box = (66.431858 9.7548365 88.077348) to (104.26048 44.396663 124.81037)
  create_atoms CPU = 0.000 seconds
create_atoms 1 single 92.52694 24.859 95.67656615999006
Created 1 atoms
  using lattice units in orthogonal box = (66.431858 9.7548365 88.077348) to (104.26048 44.396663 124.81037)
  create_atoms CPU = 0.000 seconds
create_atoms 2 single 94.4033 22.7565 98.01290123839544
Created 1 atoms
  using lattice units in orthogonal box = (66.431858 9.7548365 88.077348) to (104.26048 44.396663 124.81037)
  create_atoms CPU = 0.000 seconds
create_atoms 1 single 94.96302 25.373 99.03983668014448
Created 1 atoms
  using lattice units in orthogonal box = (66.431858 9.7548365 88.077348) to (104.26048 44.396663 124.81037)
  create_atoms CPU = 0.000 seconds
create_atoms 3 single 93.95048 23.346 100.45464267692391
Created 1 atoms
  using lattice units in orthogonal box = (66.431858 9.7548365 88.077348) to (104.26048 44.396663 124.81037)
  create_atoms CPU = 0.000 seconds
create_atoms 3 single 70.46338 29.3399 95.69789593423893
Created 1 atoms
  using lattice units in orthogonal box = (66.431858 9.7548365 88.077348) to (104.26048 44.396663 124.81037)
  create_atoms CPU = 0.000 seconds
create_atoms 2 single 69.59606 27.5262 97.39775469076177
Created 1 atoms
  using lattice units in orthogonal box = (66.431858 9.7548365 88.077348) to (104.26048 44.396663 124.81037)
  create_atoms CPU = 0.000 seconds
create_atoms 2 single 68.43564 28.6627 99.02565134484304
Created 1 atoms
  using lattice units in orthogonal box = (66.431858 9.7548365 88.077348) to (104.26048 44.396663 124.81037)
  create_atoms CPU = 0.000 seconds
create_atoms 1 single 70.62938 30.0889 98.44229237339577
Created 1 atoms
  using lattice units in orthogonal box = (66.431858 9.7548365 88.077348) to (104.26048 44.396663 124.81037)
  create_atoms CPU = 0.000 seconds
create_atoms 1 single 71.33656 28.2239 100.72768449582814
Created 1 atoms
  using lattice units in orthogonal box = (66.431858 9.7548365 88.077348) to (104.26048 44.396663 124.81037)
  create_atoms CPU = 0.000 seconds
create_atoms 2 single 74.41358 27.8469 96.52313040396463
Created 1 atoms
  using lattice units in orthogonal box = (66.431858 9.7548365 88.077348) to (104.26048 44.396663 124.81037)
  create_atoms CPU = 0.000 seconds
create_atoms 1 single 76.27802 29.9419 97.72277489157344
Created 1 atoms
  using lattice units in orthogonal box = (66.431858 9.7548365 88.077348) to (104.26048 44.396663 124.81037)
  create_atoms CPU = 0.000 seconds
create_atoms 1 single 73.08664 29.968 97.3549915996706
Created 1 atoms
  using lattice units in orthogonal box = (66.431858 9.7548365 88.077348) to (104.26048 44.396663 124.81037)
  create_atoms CPU = 0.000 seconds
create_atoms 1 single 72.46352 27.4221 98.56405846328252
Created 1 atoms
  using lattice units in orthogonal box = (66.431858 9.7548365 88.077348) to (104.26048 44.396663 124.81037)
  create_atoms CPU = 0.000 seconds
create_atoms 1 single 75.48766 28.3712 99.86776325729966
Created 1 atoms
  using lattice units in orthogonal box = (66.431858 9.7548365 88.077348) to (104.26048 44.396663 124.81037)
  create_atoms CPU = 0.000 seconds
create_atoms 2 single 73.56722 29.8022 100.44698052500927
Created 1 atoms
  using lattice units in orthogonal box = (66.431858 9.7548365 88.077348) to (104.26048 44.396663 124.81037)
  create_atoms CPU = 0.000 seconds
create_atoms 2 single 78.14862 29.3479 100.53550944240142
Created 1 atoms
  using lattice units in orthogonal box = (66.431858 9.7548365 88.077348) to (104.26048 44.396663 124.81037)
  create_atoms CPU = 0.000 seconds
create_atoms 1 single 75.40606 31.5865 99.715037931974
Created 1 atoms
  using lattice units in orthogonal box = (66.431858 9.7548365 88.077348) to (104.26048 44.396663 124.81037)
  create_atoms CPU = 0.000 seconds
create_atoms 3 single 72.72902 32.0957 99.43122768335189
Created 1 atoms
  using lattice units in orthogonal box = (66.431858 9.7548365 88.077348) to (104.26048 44.396663 124.81037)
  create_atoms CPU = 0.000 seconds
create_atoms 2 single 78.61922 28.1063 96.2566117684472
Created 1 atoms
  using lattice units in orthogonal box = (66.431858 9.7548365 88.077348) to (104.26048 44.396663 124.81037)
  create_atoms CPU = 0.000 seconds
create_atoms 1 single 81.1795 29.5494 96.74812845951219
Created 1 atoms
  using lattice units in orthogonal box = (66.431858 9.7548365 88.077348) to (104.26048 44.396663 124.81037)
  create_atoms CPU = 0.000 seconds
create_atoms 4 single 78.90796 31.4746 96.39701552515336
Created 1 atoms
  using lattice units in orthogonal box = (66.431858 9.7548365 88.077348) to (104.26048 44.396663 124.81037)
  create_atoms CPU = 0.000 seconds
create_atoms 1 single 79.34112 29.4635 98.57700128746266
Created 1 atoms
  using lattice units in orthogonal box = (66.431858 9.7548365 88.077348) to (104.26048 44.396663 124.81037)
  create_atoms CPU = 0.000 seconds
create_atoms 4 single 81.09012 31.6562 99.21223509822393
Created 1 atoms
  using lattice units in orthogonal box = (66.431858 9.7548365 88.077348) to (104.26048 44.396663 124.81037)
  create_atoms CPU = 0.000 seconds
create_atoms 2 single 82.21808 28.8326 99.54450328057648
Created 1 atoms
  using lattice units in orthogonal box = (66.431858 9.7548365 88.077348) to (104.26048 44.396663 124.81037)
  create_atoms CPU = 0.000 seconds
create_atoms 1 single 78.49108 32.0369 99.85875505167027
Created 1 atoms
  using lattice units in orthogonal box = (66.431858 9.7548365 88.077348) to (104.26048 44.396663 124.81037)
  create_atoms CPU = 0.000 seconds
create_atoms 2 single 82.96988 27.9428 95.95727013080892
Created 1 atoms
  using lattice units in orthogonal box = (66.431858 9.7548365 88.077348) to (104.26048 44.396663 124.81037)
  create_atoms CPU = 0.000 seconds
create_atoms 1 single 84.424 28.8858 98.8044843652528
Created 1 atoms
  using lattice units in orthogonal box = (66.431858 9.7548365 88.077348) to (104.26048 44.396663 124.81037)
  create_atoms CPU = 0.000 seconds
create_atoms 3 single 85.57430000000001 28.7106 96.79731119139673
Created 1 atoms
  using lattice units in orthogonal box = (66.431858 9.7548365 88.077348) to (104.26048 44.396663 124.81037)
  create_atoms CPU = 0.000 seconds
create_atoms 1 single 83.41318 31.7718 98.24090202915279
Created 1 atoms
  using lattice units in orthogonal box = (66.431858 9.7548365 88.077348) to (104.26048 44.396663 124.81037)
  create_atoms CPU = 0.000 seconds
create_atoms 1 single 83.57404 30.7192 95.63980853931845
Created 1 atoms
  using lattice units in orthogonal box = (66.431858 9.7548365 88.077348) to (104.26048 44.396663 124.81037)
  create_atoms CPU = 0.000 seconds
create_atoms 1 single 86.30946 31.0745 98.1872669657503
Created 1 atoms
  using lattice units in orthogonal box = (66.431858 9.7548365 88.077348) to (104.26048 44.396663 124.81037)
  create_atoms CPU = 0.000 seconds
create_atoms 1 single 87.49724 28.1871 99.57701565491699
Created 1 atoms
  using lattice units in orthogonal box = (66.431858 9.7548365 88.077348) to (104.26048 44.396663 124.81037)
  create_atoms CPU = 0.000 seconds
create_atoms 3 single 86.75706000000001 30.2811 100.79705803343369
Created 1 atoms
  using lattice units in orthogonal box = (66.431858 9.7548365 88.077348) to (104.26048 44.396663 124.81037)
  create_atoms CPU = 0.000 seconds
create_atoms 1 single 87.77654 27.1396 96.86937683643174
Created 1 atoms
  using lattice units in orthogonal box = (66.431858 9.7548365 88.077348) to (104.26048 44.396663 124.81037)
  create_atoms CPU = 0.000 seconds
create_atoms 3 single 88.30876 29.6485 97.64522148908604
Created 1 atoms
  using lattice units in orthogonal box = (66.431858 9.7548365 88.077348) to (104.26048 44.396663 124.81037)
  create_atoms CPU = 0.000 seconds
create_atoms 1 single 90.78808000000001 28.2424 98.17049306561283
Created 1 atoms
  using lattice units in orthogonal box = (66.431858 9.7548365 88.077348) to (104.26048 44.396663 124.81037)
  create_atoms CPU = 0.000 seconds
create_atoms 1 single 89.29886 29.4746 95.56556849982118
Created 1 atoms
  using lattice units in orthogonal box = (66.431858 9.7548365 88.077348) to (104.26048 44.396663 124.81037)
  create_atoms CPU = 0.000 seconds
create_atoms 2 single 90.6941 31.0577 98.43742587150405
Created 1 atoms
  using lattice units in orthogonal box = (66.431858 9.7548365 88.077348) to (104.26048 44.396663 124.81037)
  create_atoms CPU = 0.000 seconds
create_atoms 3 single 90.18668 32.0135 95.95312842707128
Created 1 atoms
  using lattice units in orthogonal box = (66.431858 9.7548365 88.077348) to (104.26048 44.396663 124.81037)
  create_atoms CPU = 0.000 seconds
create_atoms 1 single 90.64866 27.6188 100.95858447920183
Created 1 atoms
  using lattice units in orthogonal box = (66.431858 9.7548365 88.077348) to (104.26048 44.396663 124.81037)
  create_atoms CPU = 0.000 seconds
create_atoms 1 single 92.81556 29.5719 100.55425065181426
Created 1 atoms
  using lattice units in orthogonal box = (66.431858 9.7548365 88.077348) to (104.26048 44.396663 124.81037)
  create_atoms CPU = 0.000 seconds
create_atoms 1 single 89.36562 30.5265 100.18398233766882
Created 1 atoms
  using lattice units in orthogonal box = (66.431858 9.7548365 88.077348) to (104.26048 44.396663 124.81037)
  create_atoms CPU = 0.000 seconds
create_atoms 2 single 94.75904000000001 27.4737 97.12098533849367
Created 1 atoms
  using lattice units in orthogonal box = (66.431858 9.7548365 88.077348) to (104.26048 44.396663 124.81037)
  create_atoms CPU = 0.000 seconds
create_atoms 2 single 93.88094000000001 28.2826 98.91382534392663
Created 1 atoms
  using lattice units in orthogonal box = (66.431858 9.7548365 88.077348) to (104.26048 44.396663 124.81037)
  create_atoms CPU = 0.000 seconds
create_atoms 1 single 96.88307999999999 27.833 99.95297881170168
Created 1 atoms
  using lattice units in orthogonal box = (66.431858 9.7548365 88.077348) to (104.26048 44.396663 124.81037)
  create_atoms CPU = 0.000 seconds
create_atoms 4 single 94.06766 30.4025 95.55366110157546
Created 1 atoms
  using lattice units in orthogonal box = (66.431858 9.7548365 88.077348) to (104.26048 44.396663 124.81037)
  create_atoms CPU = 0.000 seconds
create_atoms 1 single 92.53024 30.4987 97.28406492316343
Created 1 atoms
  using lattice units in orthogonal box = (66.431858 9.7548365 88.077348) to (104.26048 44.396663 124.81037)
  create_atoms CPU = 0.000 seconds
create_atoms 3 single 93.8412 31.7136 99.86268967022103
Created 1 atoms
  using lattice units in orthogonal box = (66.431858 9.7548365 88.077348) to (104.26048 44.396663 124.81037)
  create_atoms CPU = 0.000 seconds
create_atoms 1 single 95.66812 30.3866 98.78667503918093
Created 1 atoms
  using lattice units in orthogonal box = (66.431858 9.7548365 88.077348) to (104.26048 44.396663 124.81037)
  create_atoms CPU = 0.000 seconds
create_atoms 5 single 70.87706 32.3141 96.80238477847533
Created 1 atoms
  using lattice units in orthogonal box = (66.431858 9.7548365 88.077348) to (104.26048 44.396663 124.81037)
  create_atoms CPU = 0.000 seconds
create_atoms 2 single 70.00504000000001 32.4744 99.3088403379045
Created 1 atoms
  using lattice units in orthogonal box = (66.431858 9.7548365 88.077348) to (104.26048 44.396663 124.81037)
  create_atoms CPU = 0.000 seconds
create_atoms 1 single 72.16914 34.2116 100.79260570191572
Created 1 atoms
  using lattice units in orthogonal box = (66.431858 9.7548365 88.077348) to (104.26048 44.396663 124.81037)
  create_atoms CPU = 0.000 seconds
create_atoms 4 single 73.8829 32.6219 96.9251862942965
Created 1 atoms
  using lattice units in orthogonal box = (66.431858 9.7548365 88.077348) to (104.26048 44.396663 124.81037)
  create_atoms CPU = 0.000 seconds
create_atoms 4 single 76.05438 34.0464 98.4914751052803
Created 1 atoms
  using lattice units in orthogonal box = (66.431858 9.7548365 88.077348) to (104.26048 44.396663 124.81037)
  create_atoms CPU = 0.000 seconds
create_atoms 1 single 72.86162 34.5447 98.28449346099151
Created 1 atoms
  using lattice units in orthogonal box = (66.431858 9.7548365 88.077348) to (104.26048 44.396663 124.81037)
  create_atoms CPU = 0.000 seconds
create_atoms 4 single 74.26814 35.5608 96.16425177509772
Created 1 atoms
  using lattice units in orthogonal box = (66.431858 9.7548365 88.077348) to (104.26048 44.396663 124.81037)
  create_atoms CPU = 0.000 seconds
create_atoms 4 single 76.49672000000001 32.4475 96.47405121467355
Created 1 atoms
  using lattice units in orthogonal box = (66.431858 9.7548365 88.077348) to (104.26048 44.396663 124.81037)
  create_atoms CPU = 0.000 seconds
create_atoms 4 single 76.95978000000001 36.5049 97.52438728254026
Created 1 atoms
  using lattice units in orthogonal box = (66.431858 9.7548365 88.077348) to (104.26048 44.396663 124.81037)
  create_atoms CPU = 0.000 seconds
create_atoms 3 single 73.43428 36.5282 100.29518708302457
Created 1 atoms
  using lattice units in orthogonal box = (66.431858 9.7548365 88.077348) to (104.26048 44.396663 124.81037)
  create_atoms CPU = 0.000 seconds
create_atoms 2 single 75.28246 34.563 100.66659436569788
Created 1 atoms
  using lattice units in orthogonal box = (66.431858 9.7548365 88.077348) to (104.26048 44.396663 124.81037)
  create_atoms CPU = 0.000 seconds
create_atoms 1 single 77.92802 35.5465 100.73068723103793
Created 1 atoms
  using lattice units in orthogonal box = (66.431858 9.7548365 88.077348) to (104.26048 44.396663 124.81037)
  create_atoms CPU = 0.000 seconds
create_atoms 2 single 75.08698000000001 36.5036 98.91962372915933
Created 1 atoms
  using lattice units in orthogonal box = (66.431858 9.7548365 88.077348) to (104.26048 44.396663 124.81037)
  create_atoms CPU = 0.000 seconds
create_atoms 4 single 78.49516 34.1439 97.81658448123109
Created 1 atoms
  using lattice units in orthogonal box = (66.431858 9.7548365 88.077348) to (104.26048 44.396663 124.81037)
  create_atoms CPU = 0.000 seconds
create_atoms 4 single 81.28106 33.9264 97.86628492608283
Created 1 atoms
  using lattice units in orthogonal box = (66.431858 9.7548365 88.077348) to (104.26048 44.396663 124.81037)
  create_atoms CPU = 0.000 seconds
create_atoms 1 single 79.65768 36.3959 96.95179674081086
Created 1 atoms
  using lattice units in orthogonal box = (66.431858 9.7548365 88.077348) to (104.26048 44.396663 124.81037)
  create_atoms CPU = 0.000 seconds
create_atoms 2 single 79.52284 36.8778 99.55009458062229
Created 1 atoms
  using lattice units in orthogonal box = (66.431858 9.7548365 88.077348) to (104.26048 44.396663 124.81037)
  create_atoms CPU = 0.000 seconds
create_atoms 4 single 80.46592 34.255 100.39365608938708
Created 1 atoms
  using lattice units in orthogonal box = (66.431858 9.7548365 88.077348) to (104.26048 44.396663 124.81037)
  create_atoms CPU = 0.000 seconds
create_atoms 5 single 83.29424 33.4938 100.54151491282101
Created 1 atoms
  using lattice units in orthogonal box = (66.431858 9.7548365 88.077348) to (104.26048 44.396663 124.81037)
  create_atoms CPU = 0.000 seconds
create_atoms 1 single 82.28584 36.2607 99.77478200838952
Created 1 atoms
  using lattice units in orthogonal box = (66.431858 9.7548365 88.077348) to (104.26048 44.396663 124.81037)
  create_atoms CPU = 0.000 seconds
create_atoms 1 single 82.72206 33.7091 95.89742251179996
Created 1 atoms
  using lattice units in orthogonal box = (66.431858 9.7548365 88.077348) to (104.26048 44.396663 124.81037)
  create_atoms CPU = 0.000 seconds
create_atoms 4 single 84.3173 34.848 98.65641845663201
Created 1 atoms
  using lattice units in orthogonal box = (66.431858 9.7548365 88.077348) to (104.26048 44.396663 124.81037)
  create_atoms CPU = 0.000 seconds
create_atoms 2 single 85.90296000000001 33.682 97.60173359984077
Created 1 atoms
  using lattice units in orthogonal box = (66.431858 9.7548365 88.077348) to (104.26048 44.396663 124.81037)
  create_atoms CPU = 0.000 seconds
create_atoms 1 single 84.51328 36.0012 95.80040310174563
Created 1 atoms
  using lattice units in orthogonal box = (66.431858 9.7548365 88.077348) to (104.26048 44.396663 124.81037)
  create_atoms CPU = 0.000 seconds
create_atoms 2 single 82.35924 36.3265 97.03711583780635
Created 1 atoms
  using lattice units in orthogonal box = (66.431858 9.7548365 88.077348) to (104.26048 44.396663 124.81037)
  create_atoms CPU = 0.000 seconds
create_atoms 1 single 86.21068 32.8438 100.6218639653313
Created 1 atoms
  using lattice units in orthogonal box = (66.431858 9.7548365 88.077348) to (104.26048 44.396663 124.81037)
  create_atoms CPU = 0.000 seconds
create_atoms 4 single 87.21206000000001 35.4975 99.83670047926732
Created 1 atoms
  using lattice units in orthogonal box = (66.431858 9.7548365 88.077348) to (104.26048 44.396663 124.81037)
  create_atoms CPU = 0.000 seconds
create_atoms 1 single 88.28182 32.4036 97.0626908583863
Created 1 atoms
  using lattice units in orthogonal box = (66.431858 9.7548365 88.077348) to (104.26048 44.396663 124.81037)
  create_atoms CPU = 0.000 seconds
create_atoms 1 single 92.02624 33.5201 98.16728324521615
Created 1 atoms
  using lattice units in orthogonal box = (66.431858 9.7548365 88.077348) to (104.26048 44.396663 124.81037)
  create_atoms CPU = 0.000 seconds
create_atoms 1 single 89.57656 34.6613 95.73537835306462
Created 1 atoms
  using lattice units in orthogonal box = (66.431858 9.7548365 88.077348) to (104.26048 44.396663 124.81037)
  create_atoms CPU = 0.000 seconds
create_atoms 2 single 87.10656 34.848 96.20753257915611
Created 1 atoms
  using lattice units in orthogonal box = (66.431858 9.7548365 88.077348) to (104.26048 44.396663 124.81037)
  create_atoms CPU = 0.000 seconds
create_atoms 1 single 89.42784 34.9348 98.60992783217694
Created 1 atoms
  using lattice units in orthogonal box = (66.431858 9.7548365 88.077348) to (104.26048 44.396663 124.81037)
  create_atoms CPU = 0.000 seconds
create_atoms 4 single 87.3235 37.118 97.54799499384482
Created 1 atoms
  using lattice units in orthogonal box = (66.431858 9.7548365 88.077348) to (104.26048 44.396663 124.81037)
  create_atoms CPU = 0.000 seconds
create_atoms 3 single 88.3635 33.0079 99.68563183543672
Created 1 atoms
  using lattice units in orthogonal box = (66.431858 9.7548365 88.077348) to (104.26048 44.396663 124.81037)
  create_atoms CPU = 0.000 seconds
create_atoms 1 single 91.44466 32.7122 100.67125378240273
Created 1 atoms
  using lattice units in orthogonal box = (66.431858 9.7548365 88.077348) to (104.26048 44.396663 124.81037)
  create_atoms CPU = 0.000 seconds
create_atoms 1 single 92.35732 35.8205 100.28856035704435
Created 1 atoms
  using lattice units in orthogonal box = (66.431858 9.7548365 88.077348) to (104.26048 44.396663 124.81037)
  create_atoms CPU = 0.000 seconds
create_atoms 4 single 94.73878 33.0181 97.81637739604422
Created 1 atoms
  using lattice units in orthogonal box = (66.431858 9.7548365 88.077348) to (104.26048 44.396663 124.81037)
  create_atoms CPU = 0.000 seconds
create_atoms 4 single 94.97532000000001 35.2083 99.64659627770942
Created 1 atoms
  using lattice units in orthogonal box = (66.431858 9.7548365 88.077348) to (104.26048 44.396663 124.81037)
  create_atoms CPU = 0.000 seconds
create_atoms 4 single 76.71198 38.7131 99.04956968392794
Created 1 atoms
  using lattice units in orthogonal box = (66.431858 9.7548365 88.077348) to (104.26048 44.396663 124.81037)
  create_atoms CPU = 0.000 seconds
create_atoms 3 single 77.42226000000001 37.9967 95.62096378731218
Created 1 atoms
  using lattice units in orthogonal box = (66.431858 9.7548365 88.077348) to (104.26048 44.396663 124.81037)
  create_atoms CPU = 0.000 seconds
create_atoms 1 single 79.12654 39.0831 98.02491217923462
Created 1 atoms
  using lattice units in orthogonal box = (66.431858 9.7548365 88.077348) to (104.26048 44.396663 124.81037)
  create_atoms CPU = 0.000 seconds
create_atoms 1 single 82.09426 38.8985 98.19037324355352
Created 1 atoms
  using lattice units in orthogonal box = (66.431858 9.7548365 88.077348) to (104.26048 44.396663 124.81037)
  create_atoms CPU = 0.000 seconds
create_atoms 3 single 79.99544 38.438 95.54920877005749
Created 1 atoms
  using lattice units in orthogonal box = (66.431858 9.7548365 88.077348) to (104.26048 44.396663 124.81037)
  create_atoms CPU = 0.000 seconds
create_atoms 1 single 83.30392 41.1085 100.85234977833123
Created 1 atoms
  using lattice units in orthogonal box = (66.431858 9.7548365 88.077348) to (104.26048 44.396663 124.81037)
  create_atoms CPU = 0.000 seconds
create_atoms 1 single 81.64382 38.7274 100.96106950144441
Created 1 atoms
  using lattice units in orthogonal box = (66.431858 9.7548365 88.077348) to (104.26048 44.396663 124.81037)
  create_atoms CPU = 0.000 seconds
create_atoms 2 single 79.79262 40.9024 100.17569893019353
Created 1 atoms
  using lattice units in orthogonal box = (66.431858 9.7548365 88.077348) to (104.26048 44.396663 124.81037)
  create_atoms CPU = 0.000 seconds
create_atoms 4 single 84.9439 37.5499 98.42034134358624
Created 1 atoms
  using lattice units in orthogonal box = (66.431858 9.7548365 88.077348) to (104.26048 44.396663 124.81037)
  create_atoms CPU = 0.000 seconds
create_atoms 4 single 82.78728 38.4323 95.68236454522275
Created 1 atoms
  using lattice units in orthogonal box = (66.431858 9.7548365 88.077348) to (104.26048 44.396663 124.81037)
  create_atoms CPU = 0.000 seconds
create_atoms 4 single 85.18512 40.2898 99.36288957168075
Created 1 atoms
  using lattice units in orthogonal box = (66.431858 9.7548365 88.077348) to (104.26048 44.396663 124.81037)
  create_atoms CPU = 0.000 seconds
create_atoms 4 single 84.55784 38.3594 100.838682155997
Created 1 atoms
  using lattice units in orthogonal box = (66.431858 9.7548365 88.077348) to (104.26048 44.396663 124.81037)
  create_atoms CPU = 0.000 seconds
create_atoms 4 single 89.69158 37.3768 100.38164514854792
Created 1 atoms
  using lattice units in orthogonal box = (66.431858 9.7548365 88.077348) to (104.26048 44.396663 124.81037)
  create_atoms CPU = 0.000 seconds
create_atoms 1 single 74.6112 16.8421 104.98080006401551
Created 1 atoms
  using lattice units in orthogonal box = (66.431858 9.7548365 88.077348) to (104.26048 44.396663 124.81037)
  create_atoms CPU = 0.000 seconds
create_atoms 3 single 76.6533 15.6884 104.00853511160342
Created 1 atoms
  using lattice units in orthogonal box = (66.431858 9.7548365 88.077348) to (104.26048 44.396663 124.81037)
  create_atoms CPU = 0.000 seconds
create_atoms 3 single 78.0439 13.4743 104.61425928323395
Created 1 atoms
  using lattice units in orthogonal box = (66.431858 9.7548365 88.077348) to (104.26048 44.396663 124.81037)
  create_atoms CPU = 0.000 seconds
create_atoms 1 single 78.1027 15.0513 102.3865403853483
Created 1 atoms
  using lattice units in orthogonal box = (66.431858 9.7548365 88.077348) to (104.26048 44.396663 124.81037)
  create_atoms CPU = 0.000 seconds
create_atoms 2 single 79.38810000000001 15.5794 105.67453544007101
Created 1 atoms
  using lattice units in orthogonal box = (66.431858 9.7548365 88.077348) to (104.26048 44.396663 124.81037)
  create_atoms CPU = 0.000 seconds
create_atoms 1 single 76.8544 14.5836 106.3589519827168
Created 1 atoms
  using lattice units in orthogonal box = (66.431858 9.7548365 88.077348) to (104.26048 44.396663 124.81037)
  create_atoms CPU = 0.000 seconds
create_atoms 1 single 80.6373 13.3784 104.31087948445148
Created 1 atoms
  using lattice units in orthogonal box = (66.431858 9.7548365 88.077348) to (104.26048 44.396663 124.81037)
  create_atoms CPU = 0.000 seconds
create_atoms 2 single 83.6396 13.3887 101.9335415390434
Created 1 atoms
  using lattice units in orthogonal box = (66.431858 9.7548365 88.077348) to (104.26048 44.396663 124.81037)
  create_atoms CPU = 0.000 seconds
create_atoms 1 single 80.75702000000001 14.6581 101.5787010713207
Created 1 atoms
  using lattice units in orthogonal box = (66.431858 9.7548365 88.077348) to (104.26048 44.396663 124.81037)
  create_atoms CPU = 0.000 seconds
create_atoms 1 single 83.6279 15.1789 104.09344003822513
Created 1 atoms
  using lattice units in orthogonal box = (66.431858 9.7548365 88.077348) to (104.26048 44.396663 124.81037)
  create_atoms CPU = 0.000 seconds
create_atoms 2 single 83.50150000000001 12.5844 105.00979199017902
Created 1 atoms
  using lattice units in orthogonal box = (66.431858 9.7548365 88.077348) to (104.26048 44.396663 124.81037)
  create_atoms CPU = 0.000 seconds
create_atoms 1 single 80.9801 16.3259 104.24150594684593
Created 1 atoms
  using lattice units in orthogonal box = (66.431858 9.7548365 88.077348) to (104.26048 44.396663 124.81037)
  create_atoms CPU = 0.000 seconds
create_atoms 1 single 86.12400000000001 12.9793 104.58423193113603
Created 1 atoms
  using lattice units in orthogonal box = (66.431858 9.7548365 88.077348) to (104.26048 44.396663 124.81037)
  create_atoms CPU = 0.000 seconds
create_atoms 2 single 87.87706 13.3775 103.04289688517154
Created 1 atoms
  using lattice units in orthogonal box = (66.431858 9.7548365 88.077348) to (104.26048 44.396663 124.81037)
  create_atoms CPU = 0.000 seconds
create_atoms 1 single 86.03594000000001 15.4762 103.04724567409608
Created 1 atoms
  using lattice units in orthogonal box = (66.431858 9.7548365 88.077348) to (104.26048 44.396663 124.81037)
  create_atoms CPU = 0.000 seconds
create_atoms 1 single 88.45102 16.2048 101.97630463013459
Created 1 atoms
  using lattice units in orthogonal box = (66.431858 9.7548365 88.077348) to (104.26048 44.396663 124.81037)
  create_atoms CPU = 0.000 seconds
create_atoms 1 single 88.8811 14.8226 105.68696055128395
Created 1 atoms
  using lattice units in orthogonal box = (66.431858 9.7548365 88.077348) to (104.26048 44.396663 124.81037)
  create_atoms CPU = 0.000 seconds
create_atoms 2 single 89.2262 12.1863 105.59170136531812
Created 1 atoms
  using lattice units in orthogonal box = (66.431858 9.7548365 88.077348) to (104.26048 44.396663 124.81037)
  create_atoms CPU = 0.000 seconds
create_atoms 1 single 86.54400000000001 16.5788 105.89197488629736
Created 1 atoms
  using lattice units in orthogonal box = (66.431858 9.7548365 88.077348) to (104.26048 44.396663 124.81037)
  create_atoms CPU = 0.000 seconds
create_atoms 3 single 88.98886 13.8557 101.01139120185681
Created 1 atoms
  using lattice units in orthogonal box = (66.431858 9.7548365 88.077348) to (104.26048 44.396663 124.81037)
  create_atoms CPU = 0.000 seconds
create_atoms 1 single 90.6401 14.2366 103.78798938757383
Created 1 atoms
  using lattice units in orthogonal box = (66.431858 9.7548365 88.077348) to (104.26048 44.396663 124.81037)
  create_atoms CPU = 0.000 seconds
create_atoms 1 single 93.08388000000001 14.2064 102.87546851157725
Created 1 atoms
  using lattice units in orthogonal box = (66.431858 9.7548365 88.077348) to (104.26048 44.396663 124.81037)
  create_atoms CPU = 0.000 seconds
create_atoms 3 single 93.72972 16.1484 101.42494032006063
Created 1 atoms
  using lattice units in orthogonal box = (66.431858 9.7548365 88.077348) to (104.26048 44.396663 124.81037)
  create_atoms CPU = 0.000 seconds
create_atoms 5 single 91.7021 16.7085 102.63504260960698
Created 1 atoms
  using lattice units in orthogonal box = (66.431858 9.7548365 88.077348) to (104.26048 44.396663 124.81037)
  create_atoms CPU = 0.000 seconds
create_atoms 1 single 93.73710000000001 15.3819 105.73459014426686
Created 1 atoms
  using lattice units in orthogonal box = (66.431858 9.7548365 88.077348) to (104.26048 44.396663 124.81037)
  create_atoms CPU = 0.000 seconds
create_atoms 1 single 91.013 16.8241 105.43121034548437
Created 1 atoms
  using lattice units in orthogonal box = (66.431858 9.7548365 88.077348) to (104.26048 44.396663 124.81037)
  create_atoms CPU = 0.000 seconds
create_atoms 1 single 95.3572 16.3876 104.09551089009396
Created 1 atoms
  using lattice units in orthogonal box = (66.431858 9.7548365 88.077348) to (104.26048 44.396663 124.81037)
  create_atoms CPU = 0.000 seconds
create_atoms 1 single 71.28902000000001 20.9284 103.02933280543076
Created 1 atoms
  using lattice units in orthogonal box = (66.431858 9.7548365 88.077348) to (104.26048 44.396663 124.81037)
  create_atoms CPU = 0.000 seconds
create_atoms 2 single 73.78354 20.9188 102.28258362153342
Created 1 atoms
  using lattice units in orthogonal box = (66.431858 9.7548365 88.077348) to (104.26048 44.396663 124.81037)
  create_atoms CPU = 0.000 seconds
create_atoms 2 single 72.81324000000001 18.695 102.76146811619859
Created 1 atoms
  using lattice units in orthogonal box = (66.431858 9.7548365 88.077348) to (104.26048 44.396663 124.81037)
  create_atoms CPU = 0.000 seconds
create_atoms 5 single 74.1807 21.3738 104.92281621168848
Created 1 atoms
  using lattice units in orthogonal box = (66.431858 9.7548365 88.077348) to (104.26048 44.396663 124.81037)
  create_atoms CPU = 0.000 seconds
create_atoms 1 single 72.7993 19.0661 105.42189151207468
Created 1 atoms
  using lattice units in orthogonal box = (66.431858 9.7548365 88.077348) to (104.26048 44.396663 124.81037)
  create_atoms CPU = 0.000 seconds
create_atoms 5 single 71.4119 21.7584 105.73148386646363
Created 1 atoms
  using lattice units in orthogonal box = (66.431858 9.7548365 88.077348) to (104.26048 44.396663 124.81037)
  create_atoms CPU = 0.000 seconds
create_atoms 1 single 74.86713999999999 17.2703 102.12675201840452
Created 1 atoms
  using lattice units in orthogonal box = (66.431858 9.7548365 88.077348) to (104.26048 44.396663 124.81037)
  create_atoms CPU = 0.000 seconds
create_atoms 1 single 78.07256 17.85 103.49589573147644
Created 1 atoms
  using lattice units in orthogonal box = (66.431858 9.7548365 88.077348) to (104.26048 44.396663 124.81037)
  create_atoms CPU = 0.000 seconds
create_atoms 1 single 76.2528 20.1369 102.03190700281246
Created 1 atoms
  using lattice units in orthogonal box = (66.431858 9.7548365 88.077348) to (104.26048 44.396663 124.81037)
  create_atoms CPU = 0.000 seconds
create_atoms 2 single 75.4929 19.2566 104.22597455782976
Created 1 atoms
  using lattice units in orthogonal box = (66.431858 9.7548365 88.077348) to (104.26048 44.396663 124.81037)
  create_atoms CPU = 0.000 seconds
create_atoms 1 single 77.73110000000001 17.5309 106.16015020330985
Created 1 atoms
  using lattice units in orthogonal box = (66.431858 9.7548365 88.077348) to (104.26048 44.396663 124.81037)
  create_atoms CPU = 0.000 seconds
create_atoms 1 single 78.1948 20.388 105.31834891863356
Created 1 atoms
  using lattice units in orthogonal box = (66.431858 9.7548365 88.077348) to (104.26048 44.396663 124.81037)
  create_atoms CPU = 0.000 seconds
create_atoms 1 single 79.63734 17.9321 101.62094644944466
Created 1 atoms
  using lattice units in orthogonal box = (66.431858 9.7548365 88.077348) to (104.26048 44.396663 124.81037)
  create_atoms CPU = 0.000 seconds
create_atoms 1 single 79.93934 20.6047 103.30506673176446
Created 1 atoms
  using lattice units in orthogonal box = (66.431858 9.7548365 88.077348) to (104.26048 44.396663 124.81037)
  create_atoms CPU = 0.000 seconds
create_atoms 3 single 82.21494000000001 17.0558 102.12519887950292
Created 1 atoms
  using lattice units in orthogonal box = (66.431858 9.7548365 88.077348) to (104.26048 44.396663 124.81037)
  create_atoms CPU = 0.000 seconds
create_atoms 3 single 81.78620000000001 19.7079 101.88591194606049
Created 1 atoms
  using lattice units in orthogonal box = (66.431858 9.7548365 88.077348) to (104.26048 44.396663 124.81037)
  create_atoms CPU = 0.000 seconds
create_atoms 2 single 82.0729 18.7837 104.17109698330597
Created 1 atoms
  using lattice units in orthogonal box = (66.431858 9.7548365 88.077348) to (104.26048 44.396663 124.81037)
  create_atoms CPU = 0.000 seconds
create_atoms 1 single 84.44600000000001 18.3816 103.65131316423155
Created 1 atoms
  using lattice units in orthogonal box = (66.431858 9.7548365 88.077348) to (104.26048 44.396663 124.81037)
  create_atoms CPU = 0.000 seconds
create_atoms 1 single 83.3387 21.3777 103.97850775950549
Created 1 atoms
  using lattice units in orthogonal box = (66.431858 9.7548365 88.077348) to (104.26048 44.396663 124.81037)
  create_atoms CPU = 0.000 seconds
create_atoms 4 single 80.6109 18.7231 105.70559821810335
Created 1 atoms
  using lattice units in orthogonal box = (66.431858 9.7548365 88.077348) to (104.26048 44.396663 124.81037)
  create_atoms CPU = 0.000 seconds
create_atoms 2 single 83.9298 19.8912 106.28957844511126
Created 1 atoms
  using lattice units in orthogonal box = (66.431858 9.7548365 88.077348) to (104.26048 44.396663 124.81037)
  create_atoms CPU = 0.000 seconds
create_atoms 1 single 81.8686 21.626 106.11252061032694
Created 1 atoms
  using lattice units in orthogonal box = (66.431858 9.7548365 88.077348) to (104.26048 44.396663 124.81037)
  create_atoms CPU = 0.000 seconds
create_atoms 5 single 85.9618 18.0591 101.8320697974711
Created 1 atoms
  using lattice units in orthogonal box = (66.431858 9.7548365 88.077348) to (104.26048 44.396663 124.81037)
  create_atoms CPU = 0.000 seconds
create_atoms 4 single 84.19534 21.0103 101.77936661740958
Created 1 atoms
  using lattice units in orthogonal box = (66.431858 9.7548365 88.077348) to (104.26048 44.396663 124.81037)
  create_atoms CPU = 0.000 seconds
create_atoms 1 single 89.5053 21.7166 104.06548353799603
Created 1 atoms
  using lattice units in orthogonal box = (66.431858 9.7548365 88.077348) to (104.26048 44.396663 124.81037)
  create_atoms CPU = 0.000 seconds
create_atoms 4 single 86.95291999999999 20.8393 101.74592235972808
Created 1 atoms
  using lattice units in orthogonal box = (66.431858 9.7548365 88.077348) to (104.26048 44.396663 124.81037)
  create_atoms CPU = 0.000 seconds
create_atoms 3 single 88.13010000000001 17.273 104.23425796530506
Created 1 atoms
  using lattice units in orthogonal box = (66.431858 9.7548365 88.077348) to (104.26048 44.396663 124.81037)
  create_atoms CPU = 0.000 seconds
create_atoms 4 single 87.284 19.7632 104.16177814989626
Created 1 atoms
  using lattice units in orthogonal box = (66.431858 9.7548365 88.077348) to (104.26048 44.396663 124.81037)
  create_atoms CPU = 0.000 seconds
create_atoms 4 single 86.3344 19.4656 106.23055916684982
Created 1 atoms
  using lattice units in orthogonal box = (66.431858 9.7548365 88.077348) to (104.26048 44.396663 124.81037)
  create_atoms CPU = 0.000 seconds
create_atoms 1 single 89.68176000000001 18.9394 102.9828421809757
Created 1 atoms
  using lattice units in orthogonal box = (66.431858 9.7548365 88.077348) to (104.26048 44.396663 124.81037)
  create_atoms CPU = 0.000 seconds
create_atoms 1 single 91.79588 19.9371 101.84211342903488
Created 1 atoms
  using lattice units in orthogonal box = (66.431858 9.7548365 88.077348) to (104.26048 44.396663 124.81037)
  create_atoms CPU = 0.000 seconds
create_atoms 3 single 91.1135 19.6026 105.72630673679156
Created 1 atoms
  using lattice units in orthogonal box = (66.431858 9.7548365 88.077348) to (104.26048 44.396663 124.81037)
  create_atoms CPU = 0.000 seconds
create_atoms 1 single 93.25500000000001 18.3845 104.74886465470742
Created 1 atoms
  using lattice units in orthogonal box = (66.431858 9.7548365 88.077348) to (104.26048 44.396663 124.81037)
  create_atoms CPU = 0.000 seconds
create_atoms 2 single 92.37 21.1137 104.41959920756464
Created 1 atoms
  using lattice units in orthogonal box = (66.431858 9.7548365 88.077348) to (104.26048 44.396663 124.81037)
  create_atoms CPU = 0.000 seconds
create_atoms 3 single 94.0464 18.4569 102.59155472036171
Created 1 atoms
  using lattice units in orthogonal box = (66.431858 9.7548365 88.077348) to (104.26048 44.396663 124.81037)
  create_atoms CPU = 0.000 seconds
create_atoms 1 single 96.9281 18.7421 103.66891540511655
Created 1 atoms
  using lattice units in orthogonal box = (66.431858 9.7548365 88.077348) to (104.26048 44.396663 124.81037)
  create_atoms CPU = 0.000 seconds
create_atoms 1 single 94.79612 20.7992 101.58128963615671
Created 1 atoms
  using lattice units in orthogonal box = (66.431858 9.7548365 88.077348) to (104.26048 44.396663 124.81037)
  create_atoms CPU = 0.000 seconds
create_atoms 1 single 95.25670000000001 20.7365 104.63186152411895
Created 1 atoms
  using lattice units in orthogonal box = (66.431858 9.7548365 88.077348) to (104.26048 44.396663 124.81037)
  create_atoms CPU = 0.000 seconds
create_atoms 3 single 96.214 18.4736 106.00794259095142
Created 1 atoms
  using lattice units in orthogonal box = (66.431858 9.7548365 88.077348) to (104.26048 44.396663 124.81037)
  create_atoms CPU = 0.000 seconds
create_atoms 1 single 98.5383 20.3307 106.31649951940594
Created 1 atoms
  using lattice units in orthogonal box = (66.431858 9.7548365 88.077348) to (104.26048 44.396663 124.81037)
  create_atoms CPU = 0.000 seconds
create_atoms 4 single 98.26496 21.3352 103.47104550905055
Created 1 atoms
  using lattice units in orthogonal box = (66.431858 9.7548365 88.077348) to (104.26048 44.396663 124.81037)
  create_atoms CPU = 0.000 seconds
create_atoms 1 single 69.86756 23.3212 101.36706001032704
Created 1 atoms
  using lattice units in orthogonal box = (66.431858 9.7548365 88.077348) to (104.26048 44.396663 124.81037)
  create_atoms CPU = 0.000 seconds
create_atoms 2 single 69.8831 23.9896 104.08826290855308
Created 1 atoms
  using lattice units in orthogonal box = (66.431858 9.7548365 88.077348) to (104.26048 44.396663 124.81037)
  create_atoms CPU = 0.000 seconds
create_atoms 1 single 69.8568 26.857 104.35229652182792
Created 1 atoms
  using lattice units in orthogonal box = (66.431858 9.7548365 88.077348) to (104.26048 44.396663 124.81037)
  create_atoms CPU = 0.000 seconds
create_atoms 1 single 72.98573999999999 23.4684 101.69912110749272
Created 1 atoms
  using lattice units in orthogonal box = (66.431858 9.7548365 88.077348) to (104.26048 44.396663 124.81037)
  create_atoms CPU = 0.000 seconds
create_atoms 1 single 71.49826 25.8595 102.55003414039182
Created 1 atoms
  using lattice units in orthogonal box = (66.431858 9.7548365 88.077348) to (104.26048 44.396663 124.81037)
  create_atoms CPU = 0.000 seconds
create_atoms 3 single 68.54778 25.4651 101.90372127213236
Created 1 atoms
  using lattice units in orthogonal box = (66.431858 9.7548365 88.077348) to (104.26048 44.396663 124.81037)
  create_atoms CPU = 0.000 seconds
create_atoms 2 single 72.2568 23.3811 104.04581044524222
Created 1 atoms
  using lattice units in orthogonal box = (66.431858 9.7548365 88.077348) to (104.26048 44.396663 124.81037)
  create_atoms CPU = 0.000 seconds
create_atoms 4 single 72.56490000000001 25.6374 105.54614262420402
Created 1 atoms
  using lattice units in orthogonal box = (66.431858 9.7548365 88.077348) to (104.26048 44.396663 124.81037)
  create_atoms CPU = 0.000 seconds
create_atoms 2 single 75.25327999999999 22.6113 101.03758747799739
Created 1 atoms
  using lattice units in orthogonal box = (66.431858 9.7548365 88.077348) to (104.26048 44.396663 124.81037)
  create_atoms CPU = 0.000 seconds
create_atoms 1 single 78.00276 22.8665 101.71185684648596
Created 1 atoms
  using lattice units in orthogonal box = (66.431858 9.7548365 88.077348) to (104.26048 44.396663 124.81037)
  create_atoms CPU = 0.000 seconds
create_atoms 1 single 76.2064 22.4561 103.79937907285236
Created 1 atoms
  using lattice units in orthogonal box = (66.431858 9.7548365 88.077348) to (104.26048 44.396663 124.81037)
  create_atoms CPU = 0.000 seconds
create_atoms 3 single 76.0125 24.7994 102.61588722982037
Created 1 atoms
  using lattice units in orthogonal box = (66.431858 9.7548365 88.077348) to (104.26048 44.396663 124.81037)
  create_atoms CPU = 0.000 seconds
create_atoms 1 single 74.189 26.8403 101.84397719571683
Created 1 atoms
  using lattice units in orthogonal box = (66.431858 9.7548365 88.077348) to (104.26048 44.396663 124.81037)
  create_atoms CPU = 0.000 seconds
create_atoms 1 single 78.7455 25.3054 103.86150462891703
Created 1 atoms
  using lattice units in orthogonal box = (66.431858 9.7548365 88.077348) to (104.26048 44.396663 124.81037)
  create_atoms CPU = 0.000 seconds
create_atoms 1 single 74.71690000000001 24.6995 104.47344135615404
Created 1 atoms
  using lattice units in orthogonal box = (66.431858 9.7548365 88.077348) to (104.26048 44.396663 124.81037)
  create_atoms CPU = 0.000 seconds
create_atoms 3 single 79.1117 22.6772 104.58009022739839
Created 1 atoms
  using lattice units in orthogonal box = (66.431858 9.7548365 88.077348) to (104.26048 44.396663 124.81037)
  create_atoms CPU = 0.000 seconds
create_atoms 1 single 78.0141 24.2309 106.28647216730802
Created 1 atoms
  using lattice units in orthogonal box = (66.431858 9.7548365 88.077348) to (104.26048 44.396663 124.81037)
  create_atoms CPU = 0.000 seconds
create_atoms 3 single 79.49730000000001 26.5 106.39208561261795
Created 1 atoms
  using lattice units in orthogonal box = (66.431858 9.7548365 88.077348) to (104.26048 44.396663 124.81037)
[...]
  create_atoms CPU = 0.000 seconds
create_atoms 4 single 91.68990000000001 20.098 121.15518858545262
Created 1 atoms
  using lattice units in orthogonal box = (66.431858 9.7548365 88.077348) to (104.26048 44.396663 124.81037)
  create_atoms CPU = 0.000 seconds
create_atoms 1 single 95.24810000000001 20.7663 118.37196367375536
Created 1 atoms
  using lattice units in orthogonal box = (66.431858 9.7548365 88.077348) to (104.26048 44.396663 124.81037)
  create_atoms CPU = 0.000 seconds
create_atoms 5 single 80.9016 24.563 117.52912696314465
Created 1 atoms
  using lattice units in orthogonal box = (66.431858 9.7548365 88.077348) to (104.26048 44.396663 124.81037)
  create_atoms CPU = 0.000 seconds
create_atoms 1 single 83.3749 26.5875 118.04166280067818
Created 1 atoms
  using lattice units in orthogonal box = (66.431858 9.7548365 88.077348) to (104.26048 44.396663 124.81037)
  create_atoms CPU = 0.000 seconds
create_atoms 1 single 81.7956 22.194 119.29245732944689
Created 1 atoms
  using lattice units in orthogonal box = (66.431858 9.7548365 88.077348) to (104.26048 44.396663 124.81037)
  create_atoms CPU = 0.000 seconds
create_atoms 1 single 84.2215 23.6172 118.8586138629286
Created 1 atoms
  using lattice units in orthogonal box = (66.431858 9.7548365 88.077348) to (104.26048 44.396663 124.81037)
  create_atoms CPU = 0.000 seconds
create_atoms 2 single 82.8793 25.2822 120.1528962809426
Created 1 atoms
  using lattice units in orthogonal box = (66.431858 9.7548365 88.077348) to (104.26048 44.396663 124.81037)
  create_atoms CPU = 0.000 seconds
create_atoms 1 single 89.2257 26.5076 117.53430409281671
Created 1 atoms
  using lattice units in orthogonal box = (66.431858 9.7548365 88.077348) to (104.26048 44.396663 124.81037)
  create_atoms CPU = 0.000 seconds
create_atoms 1 single 86.07430000000001 25.9328 117.5053121666532
Created 1 atoms
  using lattice units in orthogonal box = (66.431858 9.7548365 88.077348) to (104.26048 44.396663 124.81037)
  create_atoms CPU = 0.000 seconds
create_atoms 2 single 86.1478 23.2472 117.62024444537283
Created 1 atoms
  using lattice units in orthogonal box = (66.431858 9.7548365 88.077348) to (104.26048 44.396663 124.81037)
  create_atoms CPU = 0.000 seconds
create_atoms 1 single 87.1015 22.1894 120.45006352411859
Created 1 atoms
  using lattice units in orthogonal box = (66.431858 9.7548365 88.077348) to (104.26048 44.396663 124.81037)
  create_atoms CPU = 0.000 seconds
create_atoms 1 single 90.3224 22.5605 121.61284684846235
Created 1 atoms
  using lattice units in orthogonal box = (66.431858 9.7548365 88.077348) to (104.26048 44.396663 124.81037)
  create_atoms CPU = 0.000 seconds
create_atoms 1 single 88.5344 24.418 119.46123175675592
Created 1 atoms
  using lattice units in orthogonal box = (66.431858 9.7548365 88.077348) to (104.26048 44.396663 124.81037)
  create_atoms CPU = 0.000 seconds
create_atoms 1 single 86.4122 25.4733 120.6530070072632
Created 1 atoms
  using lattice units in orthogonal box = (66.431858 9.7548365 88.077348) to (104.26048 44.396663 124.81037)
  create_atoms CPU = 0.000 seconds
create_atoms 1 single 89.6832 25.6508 122.32625531727167
Created 1 atoms
  using lattice units in orthogonal box = (66.431858 9.7548365 88.077348) to (104.26048 44.396663 124.81037)
  create_atoms CPU = 0.000 seconds
create_atoms 2 single 88.3026 27.0467 119.73044249970283
Created 1 atoms
  using lattice units in orthogonal box = (66.431858 9.7548365 88.077348) to (104.26048 44.396663 124.81037)
  create_atoms CPU = 0.000 seconds
create_atoms 2 single 94.16080000000001 26.5555 118.05408791189112
Created 1 atoms
  using lattice units in orthogonal box = (66.431858 9.7548365 88.077348) to (104.26048 44.396663 124.81037)
  create_atoms CPU = 0.000 seconds
create_atoms 1 single 92.4911 21.9928 118.84929502951891
Created 1 atoms
  using lattice units in orthogonal box = (66.431858 9.7548365 88.077348) to (104.26048 44.396663 124.81037)
  create_atoms CPU = 0.000 seconds
create_atoms 1 single 91.16499999999999 26.6604 120.50908280238004
Created 1 atoms
  using lattice units in orthogonal box = (66.431858 9.7548365 88.077348) to (104.26048 44.396663 124.81037)
  create_atoms CPU = 0.000 seconds
create_atoms 2 single 91.1613 24.03 119.65899811022845
Created 1 atoms
  using lattice units in orthogonal box = (66.431858 9.7548365 88.077348) to (104.26048 44.396663 124.81037)
  create_atoms CPU = 0.000 seconds
create_atoms 2 single 92.2735 24.6045 122.33246787287814
Created 1 atoms
  using lattice units in orthogonal box = (66.431858 9.7548365 88.077348) to (104.26048 44.396663 124.81037)
  create_atoms CPU = 0.000 seconds
create_atoms 4 single 95.76520000000001 22.5781 120.87148187942395
Created 1 atoms
  using lattice units in orthogonal box = (66.431858 9.7548365 88.077348) to (104.26048 44.396663 124.81037)
  create_atoms CPU = 0.000 seconds
create_atoms 4 single 93.46570000000001 22.4562 121.80232979445961
Created 1 atoms
  using lattice units in orthogonal box = (66.431858 9.7548365 88.077348) to (104.26048 44.396663 124.81037)
  create_atoms CPU = 0.000 seconds
create_atoms 2 single 96.3656 25.7879 122.22271272383054
Created 1 atoms
  using lattice units in orthogonal box = (66.431858 9.7548365 88.077348) to (104.26048 44.396663 124.81037)
  create_atoms CPU = 0.000 seconds
create_atoms 1 single 93.8276 25.0443 120.29682048582575
Created 1 atoms
  using lattice units in orthogonal box = (66.431858 9.7548365 88.077348) to (104.26048 44.396663 124.81037)
  create_atoms CPU = 0.000 seconds
create_atoms 1 single 93.90390000000001 26.8395 122.80669295083845
Created 1 atoms
  using lattice units in orthogonal box = (66.431858 9.7548365 88.077348) to (104.26048 44.396663 124.81037)
  create_atoms CPU = 0.000 seconds
create_atoms 1 single 97.7552 22.2236 117.88841976238534
Created 1 atoms
  using lattice units in orthogonal box = (66.431858 9.7548365 88.077348) to (104.26048 44.396663 124.81037)
  create_atoms CPU = 0.000 seconds
create_atoms 1 single 95.3197 24.0117 118.38231793309946
Created 1 atoms
  using lattice units in orthogonal box = (66.431858 9.7548365 88.077348) to (104.26048 44.396663 124.81037)
  create_atoms CPU = 0.000 seconds
create_atoms 2 single 98.162 24.9984 118.26117309877336
Created 1 atoms
  using lattice units in orthogonal box = (66.431858 9.7548365 88.077348) to (104.26048 44.396663 124.81037)
  create_atoms CPU = 0.000 seconds
create_atoms 1 single 97.0275 26.4652 119.91578374196243
Created 1 atoms
  using lattice units in orthogonal box = (66.431858 9.7548365 88.077348) to (104.26048 44.396663 124.81037)
  create_atoms CPU = 0.000 seconds
create_atoms 1 single 80.3322 30.5932 117.68754713110957
Created 1 atoms
  using lattice units in orthogonal box = (66.431858 9.7548365 88.077348) to (104.26048 44.396663 124.81037)
  create_atoms CPU = 0.000 seconds
create_atoms 1 single 80.7092 27.481 118.3491843031983
Created 1 atoms
  using lattice units in orthogonal box = (66.431858 9.7548365 88.077348) to (104.26048 44.396663 124.81037)
  create_atoms CPU = 0.000 seconds
create_atoms 2 single 84.6841 27.4323 120.99159128781565
Created 1 atoms
  using lattice units in orthogonal box = (66.431858 9.7548365 88.077348) to (104.26048 44.396663 124.81037)
  create_atoms CPU = 0.000 seconds
create_atoms 1 single 83.2892 29.4296 119.27589051449631
Created 1 atoms
  using lattice units in orthogonal box = (66.431858 9.7548365 88.077348) to (104.26048 44.396663 124.81037)
  create_atoms CPU = 0.000 seconds
create_atoms 1 single 87.88550000000001 28.2949 121.82200288721342
Created 1 atoms
  using lattice units in orthogonal box = (66.431858 9.7548365 88.077348) to (104.26048 44.396663 124.81037)
  create_atoms CPU = 0.000 seconds
create_atoms 3 single 85.88640000000001 27.9238 119.24896944020162
Created 1 atoms
  using lattice units in orthogonal box = (66.431858 9.7548365 88.077348) to (104.26048 44.396663 124.81037)
  create_atoms CPU = 0.000 seconds
create_atoms 1 single 89.5403 29.3981 119.85469361183218
Created 1 atoms
  using lattice units in orthogonal box = (66.431858 9.7548365 88.077348) to (104.26048 44.396663 124.81037)
  create_atoms CPU = 0.000 seconds
create_atoms 1 single 91.1756 28.5549 122.70107950552851
Created 1 atoms
  using lattice units in orthogonal box = (66.431858 9.7548365 88.077348) to (104.26048 44.396663 124.81037)
  create_atoms CPU = 0.000 seconds
create_atoms 1 single 86.3502 30.5136 119.77082411114486
Created 1 atoms
  using lattice units in orthogonal box = (66.431858 9.7548365 88.077348) to (104.26048 44.396663 124.81037)
  create_atoms CPU = 0.000 seconds
create_atoms 2 single 88.4898 31.8117 119.07915958695818
Created 1 atoms
  using lattice units in orthogonal box = (66.431858 9.7548365 88.077348) to (104.26048 44.396663 124.81037)
  create_atoms CPU = 0.000 seconds
create_atoms 3 single 89.0581 30.8709 121.78576297950903
Created 1 atoms
  using lattice units in orthogonal box = (66.431858 9.7548365 88.077348) to (104.26048 44.396663 124.81037)
  create_atoms CPU = 0.000 seconds
create_atoms 1 single 93.0831 29.4923 117.96711213340058
Created 1 atoms
  using lattice units in orthogonal box = (66.431858 9.7548365 88.077348) to (104.26048 44.396663 124.81037)
  create_atoms CPU = 0.000 seconds
create_atoms 3 single 90.2367 29.0689 117.61920901943843
Created 1 atoms
  using lattice units in orthogonal box = (66.431858 9.7548365 88.077348) to (104.26048 44.396663 124.81037)
  create_atoms CPU = 0.000 seconds
create_atoms 1 single 91.45530000000001 31.6374 118.53970267512996
Created 1 atoms
  using lattice units in orthogonal box = (66.431858 9.7548365 88.077348) to (104.26048 44.396663 124.81037)
  create_atoms CPU = 0.000 seconds
create_atoms 2 single 92.132 27.2049 118.62874930548932
Created 1 atoms
  using lattice units in orthogonal box = (66.431858 9.7548365 88.077348) to (104.26048 44.396663 124.81037)
  create_atoms CPU = 0.000 seconds
create_atoms 3 single 92.2338 29.1821 120.20777385546639
Created 1 atoms
  using lattice units in orthogonal box = (66.431858 9.7548365 88.077348) to (104.26048 44.396663 124.81037)
  create_atoms CPU = 0.000 seconds
create_atoms 1 single 94.7872 27.9882 120.65714871100083
Created 1 atoms
  using lattice units in orthogonal box = (66.431858 9.7548365 88.077348) to (104.26048 44.396663 124.81037)
  create_atoms CPU = 0.000 seconds
create_atoms 2 single 93.7923 29.573 122.7559570800523
Created 1 atoms
  using lattice units in orthogonal box = (66.431858 9.7548365 88.077348) to (104.26048 44.396663 124.81037)
  create_atoms CPU = 0.000 seconds
create_atoms 1 single 91.5848 31.4828 121.41611592092424
Created 1 atoms
  using lattice units in orthogonal box = (66.431858 9.7548365 88.077348) to (104.26048 44.396663 124.81037)
  create_atoms CPU = 0.000 seconds
create_atoms 1 single 94.4731 30.9802 120.81556887896575
Created 1 atoms
  using lattice units in orthogonal box = (66.431858 9.7548365 88.077348) to (104.26048 44.396663 124.81037)
  create_atoms CPU = 0.000 seconds
create_atoms 3 single 95.6276 28.578 118.49517935995028
Created 1 atoms
  using lattice units in orthogonal box = (66.431858 9.7548365 88.077348) to (104.26048 44.396663 124.81037)
  create_atoms CPU = 0.000 seconds
create_atoms 2 single 98.2543 28.5821 118.7001936949637
Created 1 atoms
  using lattice units in orthogonal box = (66.431858 9.7548365 88.077348) to (104.26048 44.396663 124.81037)
  create_atoms CPU = 0.000 seconds
create_atoms 1 single 97.3145 29.6639 120.74205363762256
Created 1 atoms
  using lattice units in orthogonal box = (66.431858 9.7548365 88.077348) to (104.26048 44.396663 124.81037)
  create_atoms CPU = 0.000 seconds
create_atoms 3 single 95.47720000000001 31.1364 118.71676050991428
Created 1 atoms
  using lattice units in orthogonal box = (66.431858 9.7548365 88.077348) to (104.26048 44.396663 124.81037)
  create_atoms CPU = 0.000 seconds
create_atoms 1 single 98.23270000000001 31.6401 118.95490847482885
Created 1 atoms
  using lattice units in orthogonal box = (66.431858 9.7548365 88.077348) to (104.26048 44.396663 124.81037)
  create_atoms CPU = 0.000 seconds
create_atoms 2 single 83.3133 35.1451 118.52934841578586
Created 1 atoms
  using lattice units in orthogonal box = (66.431858 9.7548365 88.077348) to (104.26048 44.396663 124.81037)
  create_atoms CPU = 0.000 seconds
create_atoms 1 single 83.7975 32.4185 119.33490979275776
Created 1 atoms
  using lattice units in orthogonal box = (66.431858 9.7548365 88.077348) to (104.26048 44.396663 124.81037)
  create_atoms CPU = 0.000 seconds
create_atoms 1 single 86.5684 33.6858 119.3297326630857
Created 1 atoms
  using lattice units in orthogonal box = (66.431858 9.7548365 88.077348) to (104.26048 44.396663 124.81037)
  create_atoms CPU = 0.000 seconds
create_atoms 2 single 88.0215 36.2982 118.4589394522459
Created 1 atoms
  using lattice units in orthogonal box = (66.431858 9.7548365 88.077348) to (104.26048 44.396663 124.81037)
  create_atoms CPU = 0.000 seconds
create_atoms 1 single 89.8702 34.0264 118.83065736269951
Created 1 atoms
  using lattice units in orthogonal box = (66.431858 9.7548365 88.077348) to (104.26048 44.396663 124.81037)
  create_atoms CPU = 0.000 seconds
create_atoms 1 single 92.3759 34.8389 117.67822829769986
Created 1 atoms
  using lattice units in orthogonal box = (66.431858 9.7548365 88.077348) to (104.26048 44.396663 124.81037)
  create_atoms CPU = 0.000 seconds
create_atoms 2 single 92.7158 33.7374 120.51943706172415
Created 1 atoms
  using lattice units in orthogonal box = (66.431858 9.7548365 88.077348) to (104.26048 44.396663 124.81037)
  create_atoms CPU = 0.000 seconds
create_atoms 3 single 94.1979 33.0327 119.18063132853048
Created 1 atoms
  using lattice units in orthogonal box = (66.431858 9.7548365 88.077348) to (104.26048 44.396663 124.81037)
  create_atoms CPU = 0.000 seconds
create_atoms 3 single 90.8483 36.5123 118.80787799214245
Created 1 atoms
  using lattice units in orthogonal box = (66.431858 9.7548365 88.077348) to (104.26048 44.396663 124.81037)
  create_atoms CPU = 0.000 seconds
create_atoms 1 single 95.8005 33.7548 117.70825564979778
Created 1 atoms
  using lattice units in orthogonal box = (66.431858 9.7548365 88.077348) to (104.26048 44.396663 124.81037)
  create_atoms CPU = 0.000 seconds
group surface id  1 2 3 4 5 6 8 9 10 13 15 16 17 18 19 20 23 24 25 27 31 32 33 34 35 40 41 42 45 46 47 48 49 51 53 54 60 61 62 63 64 65 66 67 70 71 72 73 74 75 76 78 80 81 82 84 85 86 87 88 89 90 91 93 94 95 96 97 100 101 102 103 104 106 108 110 128 129 134 136 137 138 139 140 141 146 176 177 178 179 181 182 183 184 219 221 222 225 226 227 228 231 232 234 235 238 249 254 255 256 257 258 261 262 263 264 265 266 267 268 269 271 272 273 274 276 277 278 279 280 282 283 284 285 287 289 290 294 296 297 298 299 301 303 304 306 308 309 310 339 340 342 343 344 345 346 347 350 387 388 391 393 394 395 399 400 435 436 437 440 441 442 443 447 475 477 478 479 482 483 484 485 486 487 488 490 493 495 497 498 499 502 503 504 505 506 507 508 510 511 512 515 517 519 523 524 527 528 530 531 532 534 535 536 537 538 539 572 574 575 577 578 581 582 618 620 622 624 625 626 629 667 668 669 672 674 675 676 677 679 681 708 710 711 713 715 716 718 721 723 726 727 731 732 733 735 736 737 738 739 741 742 743 744 745 746 747 749 750 751 752 754 755 756 757 758 759 760 761 762 763 767 769 771 790 795 796 797 798 799 800 802 803 827 830 834 835 836 837 838 840 841 842 873 876 878 879 880 881 882 886 887 888 898 902 912 913 914 916 917 918 919 920 921 923 924 926 927 929 930 931 932 933 934 935 936 937 938 939 941 942 943 945 947 948 949 950 951 953 954 955 959 960 962 963 969 970 971 972 974 975 976 977 978 979 980 981 982 983 986 987 988 989 995 996 997 998 1000 1001 1002 1003 1004 1005 1006 1007 1008 1009 1010 1011 1012 1013 
391 atoms in group surface
    fix freeze surface setforce 0 0 0 
    minimize 0 1e-4 100000 100000
Neighbor list info ...
  update: every = 1 steps, delay = 0 steps, check = yes
  max neighbors/atom: 2000, page size: 100000
  master list distance cutoff = 9.1553683
  ghost atom cutoff = 9.1553683
  binsize = 4.5776842, bins = 9 8 9
  1 neighbor lists, perpetual/occasional/extra = 1 0 0
  (1) pair eam/alloy, perpetual
      attributes: half, newton on
      pair build: half/bin/atomonly/newton
      stencil: half/bin/3d
      bin: standard
Per MPI rank memory allocation (min/avg/max) = 4.083 | 4.288 | 4.354 Mbytes
   Step          Temp          E_pair         E_mol          TotEng         Press          Volume    
         0   0             -5034.0641      0             -5034.0641      21213.723      33930.091    
       542   0             -5234.9502      0             -5234.9502     -2853.067       33930.091    
Loop time of 0.155824 on 96 procs for 542 steps with 1013 atoms

99.7% CPU use with 96 MPI tasks x 1 OpenMP threads

Minimization stats:
  Stopping criterion = linesearch alpha is zero
  Energy initial, next-to-last, final = 
     -5034.06414041061  -5234.95023613647  -5234.95023613647
  Force two-norm initial, final = 42.285582 0.030075936
  Force max component initial, final = 4.3647662 0.0070777188
  Final line search alpha, max atom move = 7.6293945e-06 5.3998709e-08
  Iterations, force evaluations = 542 1024

MPI task timing breakdown:
Section |  min time  |  avg time  |  max time  |%varavg| %total
---------------------------------------------------------------
Pair    | 0.051968   | 0.067695   | 0.095977   |   5.0 | 43.44
Neigh   | 2.5627e-05 | 0.00034544 | 0.00099646 |   0.0 |  0.22
Comm    | 0.017508   | 0.056264   | 0.074105   |   5.4 | 36.11
Output  | 0          | 0          | 0          |   0.0 |  0.00
Modify  | 5.0857e-05 | 8.9051e-05 | 0.00015244 |   0.0 |  0.06
Other   |            | 0.03143    |            |       | 20.17

Nlocal:        10.5521 ave          24 max           0 min
Histogram: 20 9 9 10 4 4 6 22 7 5
Nghost:        314.583 ave         628 max          84 min
Histogram: 6 13 15 16 15 12 7 4 0 8
Neighs:        642.656 ave        2082 max           0 min
Histogram: 30 16 7 8 10 6 7 6 4 2

Total # of neighbors = 61695
Ave neighs/atom = 60.903258
Neighbor list builds = 21
Dangerous builds = 0
    unfix freeze
    compute force all property/atom fx fy fz
    dump fcal all custom 1 dump.force id type x y z fx fy fz
    dump_modify fcal sort id
    run 1 
WARNING: No fixes with time integration, atoms won't move (src/verlet.cpp:60)
Per MPI rank memory allocation (min/avg/max) = 2.974 | 3.18 | 3.246 Mbytes
   Step          Temp          E_pair         E_mol          TotEng         Press          Volume    
       542   0             -5234.9502      0             -5234.9502     -2853.067       33930.091    
       543   0             -5234.9502      0             -5234.9502     -2853.067       33930.091    
Loop time of 0.000746553 on 96 procs for 1 steps with 1013 atoms

Performance: 115.732 ns/day, 0.207 hours/ns, 1339.489 timesteps/s, 1.357 Matom-step/s
99.9% CPU use with 96 MPI tasks x 1 OpenMP threads

MPI task timing breakdown:
Section |  min time  |  avg time  |  max time  |%varavg| %total
---------------------------------------------------------------
Pair    | 6.6187e-05 | 8.9106e-05 | 0.00013442 |   0.0 | 11.94
Neigh   | 0          | 0          | 0          |   0.0 |  0.00
Comm    | 2.3455e-05 | 7.5655e-05 | 0.00010201 |   0.0 | 10.13
Output  | 0.00015578 | 0.00031793 | 0.00061178 |   0.0 | 42.59
Modify  | 1.39e-07   | 2.6591e-07 | 5.71e-07   |   0.0 |  0.04
Other   |            | 0.0002636  |            |       | 35.31

Nlocal:        10.5521 ave          25 max           0 min
Histogram: 20 9 9 10 4 4 15 14 7 4
Nghost:         314.74 ave         627 max          85 min
Histogram: 6 13 15 16 15 13 6 4 0 8
Neighs:        642.708 ave        2163 max           0 min
Histogram: 30 17 8 10 6 7 8 5 3 2

Total # of neighbors = 61700
Ave neighs/atom = 60.908193
Neighbor list builds = 0
Dangerous builds = 0
    
Total wall time: 0:00:02
