# LAMMPS data file written by OVITO Pro 3.7.7
1499 atoms
5 atom types
0.0 250.0 xlo xhi
0.0 90.51 ylo yhi
0.0 181.02 zlo zhi

Atoms  # atomic

1 3 25.9581 13.4924 67.5729
2 1 24.8899 16.0337 67.3904
3 1 27.782 15.1231 66.6003
4 1 30.6172 14.5887 66.2428
5 3 32.1826 12.3329 66.4981
6 1 29.507 12.019 67.5139
7 2 32.1728 16.4493 67.5461
8 1 33.5687 14.5727 65.8891
9 1 36.4955 14.9984 66.0736
10 1 39.1544 16.2051 66.9614
11 1 21.1146 20.3226 66.9921
12 1 26.6432 17.647 65.1447
13 1 23.8996 18.4989 66.0076
14 1 23.5732 21.2168 65.0012
15 3 26.0037 20.2008 64.1899
16 1 26.2586 20.2345 66.8688
17 3 27.3398 17.6205 67.6797
18 2 32.2353 16.7925 64.7455
19 2 30.6954 19.4371 63.7857
20 1 29.6415 17.3635 65.5407
21 2 28.4153 19.7807 65.0096
22 1 29.2301 19.5566 67.572
23 1 32.0057 19.1193 66.3494
24 3 32.7047 20.7988 64.379
25 3 28.8238 21.382 63.0894
26 2 33.9786 18.7291 63.7152
27 1 34.5161 17.4948 66.2312
28 1 34.9842 20.4511 65.5928
29 1 37.3576 18.0871 65.4477
30 5 36.5801 19.9701 63.2983
31 1 38.1021 21.0474 65.7633
32 2 36.5398 19.6016 67.5654
33 1 40.205 19.1042 66.6023
34 1 20.9524 22.8337 65.0974
35 2 19.0588 25.2413 66.529
36 1 21.634 25.7037 65.7596
37 1 22.8599 23.1899 67.3715
38 1 23.6148 24.0705 64.0477
39 3 24.2527 25.2892 66.3442
40 2 25.222 22.9442 66.1506
41 1 26.0232 22.6185 62.9904
42 1 27.6207 22.3864 65.3093
43 1 26.8043 24.8248 67.291
44 1 26.4731 25.335 64.4007
45 1 30.4691 21.7215 65.5072
46 1 28.9711 24.1119 63.0607
47 5 29.1744 24.7376 65.8618
48 1 31.4339 22.479 62.8055
49 1 31.4398 23.8375 67.2769
50 3 32.9559 21.6988 66.8305
51 2 31.398 24.782 64.5511
52 3 33.0033 24.6973 62.6335
53 1 34.4113 21.8667 62.6162
54 1 33.6195 23.3091 64.9906
55 1 33.974 25.2569 67.3715
56 3 34.0134 25.8956 64.8173
57 2 36.3505 22.4974 64.4257
58 3 38.0563 24.4304 64.4342
59 1 35.6552 22.5398 67.6729
60 1 38.2906 23.7345 67.0497
61 3 35.9339 24.4315 65.7722
62 1 35.6197 24.7583 63.0737
63 2 36.5661 25.9157 67.5709
64 1 39.4755 26.3409 65.9015
65 4 40.908 22.2274 66.7017
66 3 40.7599 24.765 67.5939
67 1 42.4642 26.5987 66.9171
68 1 23.0989 27.9593 67.2388
69 1 20.0703 27.7234 67.5834
70 1 23.9491 27.1278 64.3872
71 3 24.6263 29.5586 65.465
72 2 25.6688 27.2826 66.6798
73 1 23.7557 30.9413 67.5539
74 2 28.2043 27.1503 66.3634
75 1 26.6229 29.721 67.3284
76 1 26.6763 28.3397 64.3068
77 3 26.8243 31.0596 64.963
78 1 29.4137 27.0335 63.9814
79 3 28.7645 29.5136 65.2581
80 3 28.8785 31.4448 66.6734
81 1 32.3058 27.286 63.5351
82 1 31.3458 29.435 65.4303
83 1 31.2773 26.7398 66.5693
84 3 31.0848 31.1417 67.6113
85 1 34.1833 28.1297 66.2083
86 3 34.8632 28.0656 63.4826
87 2 33.5686 30.2773 64.1579
88 5 33.5493 31.0076 66.8655
89 1 36.6712 26.8672 64.9856
90 1 37.778 28.2642 67.5463
91 1 36.1543 30.0987 65.1747
92 5 38.3397 31.1552 66.8756
93 3 38.55 28.8665 64.9642
94 1 40.5745 29.1647 66.7212
95 1 26.2638 32.6867 67.0741
96 1 27.8274 35.28 67.2358
97 1 28.4729 33.3567 65.1018
98 1 31.2489 32.3644 65.2932
99 1 33.0513 34.0826 66.8215
100 3 30.4729 34.8697 66.2408
101 2 34.7053 32.5693 65.1529
102 1 22.9878 10.9775 71.3201
103 2 25.5836 10.1773 70.131
104 1 26.8866 8.99716 72.3517
105 1 28.8669 9.75314 69.9225
106 3 28.3237 11.3034 72.0456
107 1 31.8721 9.76569 70.9118
108 3 33.1921 11.3929 72.6917
109 3 31.8435 11.1106 68.5738
110 1 29.7917 8.57291 72.6523
111 1 35.2096 9.90757 71.9465
112 3 37.916 9.87764 71.2183
113 3 36.4284 11.5615 69.9962
114 3 18.8005 14.7497 71.5642
115 1 21.1522 13.2244 70.4513
116 1 20.8941 16.1027 70.4144
117 1 23.2753 13.8283 72.4303
118 2 22.4572 14.8837 68.3577
119 1 24.3468 13.1149 69.6733
120 3 25.7377 14.4766 71.8869
121 1 25.7591 11.8441 72.3327
122 1 23.9732 16.0077 70.4286
123 5 28.2011 14.0011 71.6998
124 1 27.2901 12.3181 69.5759
125 1 26.9657 15.4717 69.5275
126 3 29.2699 14.2778 68.8072
127 1 30.2729 12.328 70.4855
128 1 30.3398 15.81 70.7065
129 1 32.317 13.8068 71.9047
130 1 32.0834 13.928 68.7682
131 3 32.9861 15.952 70.3963
132 2 33.545 11.7641 70.2858
133 4 34.6331 15.1697 68.4814
134 1 35.1586 13.7234 70.9123
135 3 34.076 15.7118 72.6849
136 1 34.6761 12.4259 67.9088
137 1 37.1629 11.9816 72.7451
138 1 37.4344 13.9569 68.798
139 4 37.8266 14.5921 71.7404
140 5 35.7786 16.4666 70.8892
141 5 39.1881 12.2207 70.5854
142 1 40.4609 14.339 68.7336
143 2 40.3469 14.5555 71.287
144 3 42.4965 15.4549 70.2982
145 1 42.6255 14.2302 72.744
146 4 38.5898 16.4398 70.1496
147 3 17.7541 20.2645 71.2078
148 1 17.8619 17.5251 70.8298
149 2 19.5544 17.8334 68.4338
150 1 20.4083 19.0261 70.7805
151 2 18.9739 20.391 68.9036
152 2 23.2025 18.6192 71.0358
153 1 22.3461 17.9064 68.4893
154 1 21.4438 21.5408 69.965
155 1 26.3218 17.115 72.0573
156 1 25.3878 18.4587 69.2967
157 3 26.4098 19.7545 71.4363
158 5 23.6859 20.5514 68.2559
159 3 27.2995 20.4108 69.2857
160 1 24.2342 21.1032 71.1559
161 3 29.6496 16.6284 68.1238
162 1 28.4414 18.0853 70.1696
163 3 29.7456 20.4265 70.2974
164 3 30.7216 18.4555 71.7846
165 1 31.4644 18.3781 69.2609
166 1 32.3651 21.0005 70.9686
167 2 31.227 21.2256 68.4523
168 1 33.5994 18.3325 71.4082
169 3 34.1292 17.558 68.8972
170 1 33.9719 20.0781 68.5531
171 3 34.5974 20.5972 72.819
172 1 37.6939 17.8536 72.658
173 1 36.4186 19.1599 70.2042
174 5 36.6073 16.9574 68.195
175 1 37.4423 20.9927 72.2445
176 3 39.3692 19.0551 70.7702
177 3 38.6158 18.4229 68.5046
178 1 38.5353 20.9844 68.8249
179 1 40.7905 16.9639 72.2011
180 1 41.0671 17.3969 69.15
181 4 42.2115 19.4364 71.671
182 1 41.4756 20.4087 69.0465
183 2 40.0797 21.3334 71.3993
184 1 43.9539 16.8836 72.0555
185 4 43.783 18.3147 69.5364
186 3 45.0027 19.5316 71.6924
187 4 44.3719 21.0321 69.0185
188 3 16.1966 24.6394 70.8935
189 1 17.9818 22.7145 70.1351
190 3 18.2648 24.5059 72.2146
191 1 16.4538 22.3271 72.7234
192 1 19.8474 23.0351 67.9053
193 3 20.4471 23.9126 70.7663
194 1 21.4848 25.4559 68.8099
195 1 18.3579 25.5869 69.2669
196 3 23.1442 23.5927 70.0119
197 1 22.953 25.8519 71.6846
198 1 20.1433 26.49 71.3905
199 1 19.5756 22.0189 72.5695
200 1 22.5549 23.0603 72.5778
201 2 25.2398 23.7575 71.435
202 1 25.6088 22.6103 68.9276
203 1 24.4948 25.6765 68.9492
204 1 27.9486 22.2611 71.0387
205 3 27.3208 24.5777 69.895
206 1 25.8528 26.4663 71.4435
207 1 28.6644 22.5262 68.0952
208 4 28.8848 26.1696 71.2452
209 2 29.5754 25.6508 68.5209
210 1 30.6259 23.5018 70.0938
211 4 30.3269 21.7024 72.7206
212 4 30.0541 24.1982 72.6649
213 1 33.214 23.8507 71.7872
214 2 33.2864 23.045 69.0997
215 5 32.2679 25.9837 69.5606
216 4 31.4881 26.5378 72.1047
217 5 35.1613 21.8109 70.562
218 1 35.4771 24.8321 69.9729
219 2 36.0249 23.5755 72.3538
220 2 37.42 22.9948 69.9622
221 1 37.0114 26.2931 72.4785
222 2 34.1251 26.4735 71.7176
223 1 38.754 23.7459 72.1707
224 1 38.4123 25.4891 69.4387
225 1 40.3841 23.2515 69.6124
226 1 42.8619 22.2469 71.1625
227 3 41.4132 24.3219 71.8799
228 2 43.0503 23.5191 68.6162
229 1 42.1763 25.8217 69.8007
230 3 42.3785 26.3816 72.5968
231 1 44.4555 24.8621 71.4452
232 1 45.7807 22.1514 71.3608
233 3 47.0654 24.4277 72.1355
234 1 17.0232 27.2312 71.529
235 1 17.5542 30.0935 72.8442
236 1 19.0305 28.8964 70.0643
237 2 19.6984 28.6881 72.7783
238 2 22.1757 27.8972 69.847
239 5 22.2314 28.832 72.2366
240 2 21.3258 29.9985 68.7708
241 1 20.3949 31.1225 71.3921
242 5 24.845 28.6328 69.5268
243 1 25.0796 29.3576 72.4769
244 1 23.3509 30.9055 70.4711
245 2 25.8633 31.2617 69.6665
246 1 27.7167 29.4797 70.7992
247 1 27.3669 27.2024 68.9639
248 2 28.2078 31.4215 68.9388
249 1 29.4391 29.0303 67.861
250 4 29.9129 28.9667 72.6549
251 3 30.2801 27.9034 70.0784
252 1 30.6778 30.721 70.2083
253 1 32.3585 28.8325 68.5394
254 5 32.6392 28.9626 71.5676
255 2 30.8401 31.4323 72.7725
256 3 35.7218 29.8762 67.7461
257 1 34.98 27.6517 69.1876
258 4 35.5029 28.748 71.8924
259 1 34.4049 30.6584 69.9037
260 4 35.982 31.2606 72.2488
261 2 37.4091 27.8428 70.2172
262 1 37.4865 30.6853 69.6176
263 1 39.9903 26.9796 71.3246
264 1 38.3971 29.3606 72.2202
265 2 39.5532 29.0706 69.4924
266 3 40.2299 27.0567 68.4089
267 1 42.4229 28.7355 68.9472
268 3 41.2003 29.6033 71.1415
269 1 40.7946 31.4011 68.9181
270 1 42.6422 31.0306 72.8617
271 1 43.668 28.3519 71.604
272 5 43.6056 31.1243 70.1663
273 2 44.6838 26.9083 69.3602
274 1 46.4226 27.1456 71.7219
275 2 45.397 30.3462 72.2173
276 1 21.2674 34.1009 71.9747
277 1 21.601 32.8299 69.1245
278 1 22.8256 35.4572 69.6372
279 3 25.1996 35.3722 68.11
280 3 24.2785 33.1941 68.9596
281 1 24.2943 33.7155 71.5676
282 2 25.9975 31.8473 72.1229
283 3 23.3783 36.1555 72.2201
284 3 25.2139 35.9404 70.5607
285 1 26.8252 33.9132 69.7248
286 1 27.075 35.2652 72.4815
287 1 28.5272 32.3835 71.4545
288 1 29.8921 33.4697 68.4486
289 2 29.1473 35.289 70.5969
290 5 32.6041 32.6183 69.1232
291 3 33.1864 32.0709 71.9
292 1 31.1948 33.8007 71.4023
293 5 32.434 35.5059 69.3616
294 1 33.2926 35.6843 72.5185
295 1 34.7267 33.8859 70.5668
296 3 34.9975 35.3051 68.2571
297 1 35.812 32.691 67.8731
298 4 37.3562 33.1424 71.0761
299 1 37.3173 35.6911 69.6849
300 1 36.5889 35.4616 72.6241
301 2 38.6529 33.2352 68.8232
302 1 39.8051 34.8538 71.1653
303 1 39.7951 31.8598 71.6566
304 3 42.0606 33.1698 70.8911
305 1 44.3233 33.4769 72.6116
306 1 27.3299 37.0451 69.5989
307 1 25.7462 37.961 72.1394
308 3 28.5494 37.6062 71.8998
309 4 31.1196 37.563 70.9733
310 4 30.1155 36.6482 68.3735
311 4 33.2292 39.0009 72.1747
312 2 35.6361 37.9469 72.8519
313 1 34.7861 37.058 70.3911
314 1 38.677 37.4826 72.3254
315 1 18.1395 11.5 76.7684
316 3 21.7428 9.7005 73.4353
317 2 20.1744 9.31799 77.3774
318 1 23.1352 9.16775 75.7284
319 1 20.8909 11.3189 75.5212
320 3 24.2698 9.43924 73.025
321 1 25.3983 9.79138 77.9196
322 1 25.8992 10.2989 74.9875
323 3 27.9975 8.07808 74.946
324 4 25.3062 7.48476 74.4317
325 4 26.4263 7.34778 76.9235
326 2 23.3387 11.5461 74.1132
327 3 28.4526 10.2661 74.2516
328 1 28.3613 10.3104 76.992
329 1 30.6398 9.14895 75.484
330 1 32.8922 8.83542 73.5575
331 3 31.7048 8.00508 77.6789
332 1 30.6327 11.498 73.3903
333 2 32.7602 11.1686 75.0871
334 1 31.9379 10.8323 77.5902
335 2 29.1333 7.64759 77.4243
336 4 34.6 7.14824 77.4316
337 2 33.5049 9.03647 76.1971
338 2 35.3017 7.91539 74.6733
339 1 35.4319 10.6661 75.0842
340 1 37.6621 9.02237 73.7986
341 1 37.1367 8.8367 76.8654
342 2 38.1405 11.2105 75.3152
343 1 40.2127 9.52922 75.5076
344 5 39.1365 10.5926 77.8518
345 4 42.7886 10.761 76.5025
346 2 39.6951 10.7117 73.0089
347 1 17.0891 15.9225 73.372
348 1 17.0629 14.8817 76.1501
349 2 21.0682 12.1864 72.9817
350 3 20.8512 14.6871 72.9075
351 1 18.8589 13.3702 74.1489
352 1 19.9221 13.7238 77.1075
353 3 19.7606 15.6095 75.2909
354 1 22.2143 14.3435 75.184
355 1 21.6149 16.1965 77.4961
356 1 23.4811 11.9476 76.929
357 2 24.0173 14.7959 77.283
358 1 25.0954 13.4046 74.7682
359 2 26.3411 12.2149 76.8588
360 3 24.9222 15.8531 73.95
361 1 27.9944 12.7623 74.5463
362 1 26.4683 15.1734 76.5506
363 3 27.258 15.1507 73.8501
364 2 28.0876 13.5453 77.842
365 2 30.065 12.3 76.218
366 1 29.3483 15.1515 75.8091
367 3 30.0289 14.3565 73.3039
368 1 31.9803 13.7248 74.9153
369 2 31.4525 14.1548 77.5182
370 3 31.7582 16.0844 76.0808
371 1 31.7594 16.5404 73.4391
372 1 34.6888 13.221 73.7917
373 1 34.0839 12.9157 76.9312
374 1 34.3065 15.6524 75.4971
375 2 36.345 15.5207 73.5253
376 2 36.7487 11.9162 77.3827
377 1 37.1944 13.689 75.3577
378 1 36.1896 14.83 77.9518
379 2 38.9226 15.8843 73.9553
380 2 39.1978 15.0627 76.3906
381 1 40.3662 12.5413 76.214
382 1 39.7451 13.3614 73.5578
383 2 41.9248 11.653 73.9597
384 1 43.1626 13.541 75.7136
385 4 41.382 15.5759 74.8334
386 1 41.4537 15.0613 77.8253
387 3 44.1632 15.8566 74.6003
388 1 16.3375 18.9282 73.2387
389 2 15.6903 17.5342 75.8638
390 1 17.2151 19.3154 77.554
391 1 17.7459 20.9268 74.9685
392 1 14.9338 20.3895 75.723
393 2 19.0116 19.4665 73.0992
394 1 19.8089 17.0357 73.0155
395 1 18.3538 17.827 75.3902
396 2 20.1201 19.8689 75.2412
397 2 21.2807 17.6301 75.2584
398 1 20.3021 18.9732 77.7857
399 1 22.7039 16.8468 73.073
400 1 21.891 19.9546 73.1498
401 5 22.5906 19.8257 76.0281
402 1 24.7785 19.1114 73.6966
403 1 23.9965 17.2357 76.0072
404 3 25.9865 17.8705 77.6141
405 1 25.167 20.3212 76.9785
406 1 27.0351 17.5625 75.0299
407 1 28.2388 19.6396 77.4916
408 3 27.009 20.1382 75.1361
409 2 23.9142 21.5688 74.4633
410 2 28.9736 16.7201 72.9583
411 1 28.508 19.4977 72.889
412 3 28.3262 16.9748 77.4988
413 5 29.4094 21.116 75.1875
414 1 29.9333 18.165 75.2437
415 1 32.133 19.5682 73.7622
416 1 30.9503 17.7224 77.9261
417 3 32.8362 18.1404 75.9106
418 5 31.7386 20.524 76.5433
419 2 34.3596 20.0927 75.6318
420 1 34.9794 18.0835 73.9562
421 2 35.0421 17.9254 76.9067
422 1 37.1669 16.8247 75.8484
423 5 37.293 19.6312 75.0902
424 2 38.27 18.3616 77.888
425 1 36.3305 20.1773 77.785
426 1 39.8871 19.6506 73.545
427 1 39.9917 17.802 75.8274
428 1 39.4931 20.6437 76.8304
429 4 42.5722 18.2003 74.12
430 4 42.8514 17.2532 76.5182
431 3 41.7486 20.0919 75.4666
432 2 41.9687 20.4932 77.9174
433 1 43.9655 20.9762 73.7227
434 5 44.2775 19.5138 76.7797
435 1 45.4522 18.4063 74.2741
436 4 45.6264 16.8137 76.9064
437 1 47.4106 19.6481 76.1862
438 5 46.9954 20.8552 73.5695
439 2 45.6357 21.5224 75.8589
440 2 15.537 23.1697 75.2802
441 1 16.6736 22.2717 77.486
442 4 13.639 24.6812 76.306
443 1 15.8059 25.2571 73.5473
444 1 16.6688 26.1429 76.3119
445 5 19.4881 21.692 77.3231
446 1 18.3589 23.796 75.1223
447 4 21.0961 24.1117 77.4239
448 1 21.1944 22.3406 75.1431
449 2 20.4817 24.6054 73.4068
450 4 22.4579 25.051 75.1105
451 1 18.5206 26.554 73.9572
452 4 19.8469 26.1768 76.4454
453 1 26.3077 21.8156 73.3106
454 1 23.7624 22.9687 76.7387
455 4 24.8884 24.2227 74.1662
456 4 24.6119 26.0915 76.7439
457 4 27.4227 24.5147 72.9647
458 1 26.8477 22.7719 76.1205
459 2 28.2263 24.8313 77.7826
460 1 27.2122 25.8638 75.4856
461 4 29.4174 23.8004 75.19
462 1 29.5163 22.3521 77.8757
463 2 29.5023 26.4093 73.969
464 1 30.2509 26.1568 76.5813
465 1 32.8825 22.3393 74.3781
466 5 31.9332 23.7586 76.7905
467 4 31.898 25.1472 74.2968
468 5 33.2346 26.3146 76.4344
469 1 34.3444 22.2798 77.2127
470 1 34.7352 24.9367 74.3389
471 1 35.9063 22.1325 74.6508
472 2 37.4385 22.5331 76.8739
473 1 37.6268 24.6254 75.0099
474 2 35.3798 24.7497 77.1068
475 4 37.8901 24.9841 77.9029
476 2 38.6655 22.0771 74.5367
477 1 41.206 22.3262 73.7268
478 1 43.3392 24.4196 74.1989
479 1 40.3127 23.6039 76.3356
480 1 43.0376 22.2345 76.2486
481 1 42.8076 24.9949 77.2345
482 1 40.2597 25.4945 73.9871
483 2 47.7846 22.8791 75.3256
484 3 45.635 23.2324 73.861
485 1 45.5182 24.065 76.5981
486 1 48.1844 24.9663 77.3607
487 1 46.9181 25.6538 74.5007
488 3 44.7225 26.507 75.8894
489 2 14.2806 27.1338 75.2702
490 3 16.2946 28.0401 74.0824
491 1 16.021 29.0972 76.6016
492 1 17.6328 31.5529 75.5176
493 2 18.516 30.0073 77.7499
494 4 20.5761 28.7323 76.7675
495 1 23.0815 29.2343 75.138
496 2 18.4134 28.8536 75.3166
497 4 21.2846 27.1956 74.2611
498 4 22.7228 29.9097 77.8348
499 1 20.3718 30.6337 74.4583
500 4 22.3119 26.7763 77.8686
501 4 24.4008 26.8955 74.0109
502 1 26.0546 28.6694 75.7179
503 3 25.0579 30.9733 74.7291
504 1 25.4655 31.1581 77.4247
505 5 27.4378 27.8312 73.2834
506 1 28.0188 27.6598 77.8678
507 1 27.6449 30.7337 73.9794
508 3 28.0208 30.2254 76.7878
509 2 28.9579 28.4337 75.3538
510 1 30.2708 30.9472 75.2658
511 1 30.915 28.9833 77.2834
512 5 31.6555 28.0779 74.6051
513 1 33.2445 30.4784 74.0304
514 1 32.5912 31.5419 77.0539
515 4 34.4343 27.7754 74.0967
516 2 33.6666 28.9868 76.435
517 3 34.9101 31.5169 75.7634
518 1 36.5184 27.2191 76.1128
519 1 36.6086 29.8388 74.6676
520 1 35.8138 30.0554 77.7171
521 2 42.2271 26.7167 75.2502
522 2 38.5865 27.7436 74.3994
523 3 38.4076 29.4353 76.8143
524 3 40.1706 31.4041 77.4943
525 1 39.5545 30.9652 74.5989
526 1 39.7188 26.7499 76.7076
527 1 41.0713 28.5324 73.5709
528 1 43.1668 27.8471 77.5775
529 5 41.0079 29.1541 76.3254
530 1 42.3632 31.4988 75.803
531 1 43.7757 28.8934 74.7692
532 1 45.2595 31.5572 74.7144
533 3 44.6152 26.6835 73.5323
534 1 46.6198 28.7541 74.2433
535 1 46.8149 27.6938 76.984
536 2 45.0849 29.8798 76.9819
537 1 18.1503 34.0626 77.1794
538 2 18.8313 32.6451 73.1191
539 1 22.8879 31.676 73.2271
540 4 20.1835 31.7309 77.0465
541 1 20.4279 33.7783 75.0392
542 2 20.1562 36.1506 76.6632
543 3 23.0785 34.2348 74.0342
544 1 22.9269 32.3732 76.0671
545 2 22.6813 35.186 76.359
546 1 21.4591 36.3849 74.1147
547 5 25.0463 34.1557 77.138
548 1 25.6775 33.4431 74.3653
549 1 24.6997 36.3133 74.5469
550 1 27.7383 32.9225 76.5367
551 2 26.9587 35.4734 76.0022
552 1 29.0555 33.5758 74.0499
553 3 29.3622 35.5407 75.9161
554 1 30.327 36.1007 73.3787
555 2 30.5702 33.4254 76.5269
556 1 32.1741 33.3878 74.3458
557 5 32.011 35.658 76.0978
558 1 34.5279 33.8928 76.8104
559 1 35.0663 33.3019 73.8297
560 1 34.6782 36.3932 75.0894
561 3 37.8762 32.8768 73.6313
562 1 37.4801 32.3296 76.3135
563 3 36.8843 34.737 75.3399
564 1 36.7665 35.7613 77.8353
565 2 41.3378 36.4347 72.9906
566 2 39.957 33.377 75.8751
567 4 39.107 35.1714 74.0671
568 1 41.4142 33.6203 73.5371
569 1 41.9054 33.6793 77.8294
570 5 41.5694 35.5276 75.6179
571 2 39.0998 35.7549 76.584
572 1 43.8955 35.9963 74.1084
573 2 44.462 32.5384 77.3231
574 3 43.4903 33.7301 75.3335
575 1 43.9632 35.75 77.2667
576 1 46.0436 34.2959 75.5883
577 1 47.0698 31.7212 77.0659
578 1 22.6604 37.9851 76.3424
579 4 23.0993 38.6155 73.3044
580 3 27.5434 39.7537 73.0952
581 1 25.5596 37.8705 76.9281
582 4 25.8163 40.5838 77.7334
583 2 25.3864 39.2379 74.6261
584 1 27.7825 37.4745 74.4997
585 2 27.734 39.9389 75.7579
586 1 30.1558 39.2009 73.5344
587 1 28.497 37.825 77.4091
588 1 30.409 40.2586 76.4562
589 3 30.4443 37.7044 75.6853
590 2 32.4296 37.6656 74.1392
591 1 32.8537 38.5645 76.6128
592 3 32.9676 40.9802 77.5906
593 3 32.4087 40.2754 74.5837
594 4 34.9588 39.5239 74.8029
595 1 37.4016 37.501 75.0908
596 4 35.6641 38.515 77.2861
597 1 40.2591 37.9484 75.2408
598 1 38.5309 38.3692 77.8941
599 1 22.6447 8.84714 78.7008
600 1 20.9416 9.55157 81.0956
601 1 18.421 10.6171 79.6602
602 3 18.8166 10.4506 82.6061
603 3 23.1309 7.91902 81.3049
604 1 21.0275 11.4903 78.7703
605 4 24.7508 6.97555 79.3415
606 1 25.5909 7.60146 82.3383
607 3 25.2144 9.50095 80.5261
608 2 23.5868 11.1315 79.7259
609 1 23.5451 10.3008 82.449
610 1 27.4241 8.03814 79.683
611 2 27.385 9.65009 81.8227
612 5 27.4101 11.0985 79.556
613 1 29.3136 7.93299 82.2741
614 1 30.0935 9.33441 79.5201
615 4 33.1585 8.40309 79.7319
616 4 31.0791 6.7315 80.3144
617 3 31.7632 9.11208 81.8574
618 1 32.5602 11.2389 80.5365
619 5 29.5806 11.1785 81.654
620 2 31.6552 11.5902 83.1383
621 3 31.7785 6.84435 83.0968
622 1 34.7987 10.2573 78.2368
623 1 34.2442 7.59607 82.2957
624 1 35.1896 10.3115 81.4104
625 1 36.103 7.97342 79.7467
626 2 37.1586 7.26027 82.1053
627 1 38.1047 9.82967 82.2166
628 2 37.2353 10.5995 79.5955
629 1 39.0073 8.37154 79.6864
630 3 39.7397 11.1236 80.3797
631 1 41.602 9.71058 78.9425
632 1 40.9519 9.14475 81.9251
633 4 44.1628 11.4757 78.9941
634 1 17.4546 12.6735 81.513
635 4 17.2809 13.6239 78.7962
636 2 17.4942 15.6319 80.7383
637 1 18.6962 16.4103 78.0812
638 3 20.1356 12.0989 81.3179
639 1 20.0056 14.4213 80.0148
640 3 21.607 15.3679 81.9933
641 3 22.2869 13.7269 78.5966
642 1 22.6292 13.0584 81.2805
643 1 19.528 14.1197 83.0196
644 1 25.2419 13.1586 79.1331
645 3 25.1672 14.4817 81.4615
646 1 25.9506 11.8753 81.958
647 1 23.346 15.7411 79.9104
648 1 26.4437 15.9934 79.3762
649 1 27.9048 13.7476 80.822
650 1 30.075 12.4145 79.087
651 5 29.6932 15.3374 79.0717
652 3 29.233 15.7934 81.751
653 3 32.9167 13.5746 79.3101
654 1 31.3138 13.9305 81.4137
655 1 33.4201 16.0889 78.3528
656 3 33.8343 12.8159 82.3801
657 1 34.3061 15.1824 81.1545
658 5 35.3219 12.7534 79.7903
659 3 36.283 14.49 82.8999
660 1 37.622 12.6628 81.4234
661 2 37.1138 15.2078 80.5845
662 1 38.737 13.2635 78.6786
663 1 38.9202 15.1123 82.731
664 2 41.5419 12.4472 78.6453
665 3 40.2377 13.4819 80.8535
666 3 41.9838 14.0175 82.567
667 1 42.3564 11.6987 81.1888
668 2 42.552 14.2429 80.1197
669 4 38.7981 16.0689 78.7675
670 4 40.7871 15.9698 80.6706
671 1 44.4238 14.2084 78.2336
672 1 44.7816 13.6758 81.4373
673 1 46.286 16.2257 82.9098
674 1 43.4973 16.4195 81.5
675 1 46.0545 16.1081 79.8276
676 4 13.9271 18.9942 78.1721
677 1 15.885 16.7841 78.6628
678 2 15.1352 18.3115 80.8446
679 3 15.7168 20.445 79.312
680 1 13.5619 20.8018 80.7791
681 1 16.8434 17.7562 83.018
682 1 16.4258 20.4969 81.9173
683 1 18.0638 18.5128 80.2817
684 5 18.1851 21.4487 79.8281
685 4 19.4041 16.7781 82.0637
686 2 20.7258 17.1564 79.8612
687 1 20.7566 20.0905 80.5824
688 1 23.2499 18.6215 78.7998
689 2 22.0954 21.2216 78.2396
690 1 22.1402 17.9469 81.9558
691 2 24.6594 17.7014 81.0506
692 1 26.1527 19.4496 79.8166
693 2 23.4946 20.1404 81.1843
694 1 26.833 16.8078 82.171
695 1 27.5314 19.586 82.5967
696 4 25.5612 21.5522 81.8316
697 1 28.8156 18.0157 80.0835
698 2 29.7692 18.1874 82.6195
699 5 28.7058 21.0054 80.4736
700 2 30.619 20.0857 78.9846
701 1 31.6818 16.8614 80.7276
702 1 31.6693 19.7243 81.3859
703 1 33.4514 19.3511 78.6288
704 2 34.0573 18.1064 81.0261
705 1 36.1076 17.4553 79.355
706 1 36.3821 17.2047 82.5384
707 1 36.3655 19.9195 80.9635
708 1 33.9453 21.5829 80.6756
709 1 38.8122 17.987 81.0274
710 2 38.5452 20.2819 79.4953
711 1 40.948 18.1122 78.6768
712 2 41.5185 18.3628 81.7661
713 1 41.0097 20.652 80.4048
714 2 41.8811 21.346 82.8545
715 1 39.497 20.1102 82.9911
716 3 43.4806 16.6328 78.8829
717 1 43.58 19.1622 79.7018
718 1 43.8546 19.6679 82.6121
719 1 46.4802 19.1245 78.8959
720 3 45.5231 18.2013 81.2974
721 2 47.985 18.0526 81.0819
722 1 48.0936 20.9499 80.9258
723 3 45.5911 20.6398 80.9831
724 1 13.7941 22.1672 78.0395
725 1 13.2857 24.7434 79.7464
726 1 15.6575 22.9945 80.4343
727 5 18.282 24.0855 81.2271
728 2 15.4917 24.5437 78.1218
729 1 14.4378 24.9244 82.5465
730 1 16.2285 26.0312 80.2907
731 2 16.7076 23.0842 83.1029
732 1 18.3238 24.5526 78.4104
733 4 20.5475 22.8347 79.7486
734 1 19.2118 21.7345 82.6985
735 1 20.6615 25.5773 80.4294
736 4 23.0125 24.3305 79.3357
737 1 22.2998 22.5629 81.9517
738 2 22.2704 26.0672 82.5757
739 4 25.7032 24.316 78.4281
740 4 24.351 21.9012 79.4554
741 1 24.8679 24.2868 81.5005
742 3 26.8837 21.8043 78.6374
743 1 27.8811 23.7584 80.223
744 2 27.6402 22.6692 82.5857
745 1 27.3946 25.7942 82.6463
746 4 26.3123 26.4822 79.9604
747 2 29.5961 24.205 82.329
748 1 29.265 26.4185 80.3549
749 2 30.5678 24.53 78.9595
750 3 32.2005 21.9461 78.6752
751 1 31.0415 22.7125 80.8306
752 3 32.6846 21.6985 83.0288
753 2 33.0942 23.8903 82.1461
754 3 31.6281 25.4735 81.2901
755 1 33.5402 24.3734 79.388
756 1 35.6336 24.3407 81.9644
757 1 36.3735 22.7799 79.432
758 2 35.6611 21.8181 82.8401
759 1 38.2182 22.3218 81.7771
760 3 36.0726 25.462 79.6541
761 1 39.3944 22.7971 78.9753
762 1 38.4271 25.1428 80.8542
763 3 42.0446 22.813 78.7856
764 1 40.9218 25.8264 79.3067
765 1 41.0755 23.5468 81.3646
766 1 42.3956 26.2554 82.2945
767 3 40.0538 25.298 83.0451
768 2 43.3999 21.9148 80.9896
769 1 43.6643 24.54 80.0484
770 1 44.7486 21.8731 78.6875
771 2 46.3122 24.2058 79.2194
772 1 47.6405 22.0283 78.1171
773 1 45.9318 23.141 81.6348
774 2 48.3633 23.9965 80.6772
775 3 45.1472 26.1823 78.4581
776 1 45.6082 26.214 81.3964
777 1 16.3313 31.5134 78.3172
778 1 14.3211 27.0752 78.101
779 2 16.2367 28.7065 79.4616
780 2 14.0397 29.775 78.7289
781 1 13.9678 27.7742 81.075
782 1 16.6232 28.5925 82.3154
783 1 15.1953 30.9313 81.0254
784 4 18.2792 27.5343 78.3064
785 3 18.5017 27.1442 80.8931
786 1 18.3681 30.0852 80.45
787 1 19.9522 27.7603 82.9591
788 1 20.8029 28.3953 79.8262
789 3 20.8379 30.1723 81.8352
790 5 20.9553 31.282 79.521
791 4 24.9584 28.3578 78.4511
792 5 23.3599 29.7836 80.5124
793 5 23.5501 26.9748 80.5725
794 1 25.7975 28.7106 81.959
795 4 27.1991 29.8959 79.4785
796 5 27.8088 31.2998 81.8614
797 1 29.682 31.6048 78.3719
798 4 29.8585 29.1967 79.8992
799 4 28.6295 28.6613 82.2371
800 1 31.9185 26.8063 79.0052
801 1 33.0795 29.4525 79.3938
802 2 31.6907 28.0369 81.5228
803 4 30.8989 30.4325 81.9895
804 1 34.8616 27.3362 78.5009
805 1 34.1359 26.9785 81.3428
806 5 33.7396 30.6229 81.8801
807 1 37.7871 27.7533 79.0672
808 2 36.8362 27.1333 81.6132
809 2 35.8027 29.3921 80.4232
810 1 38.1184 31.0566 79.196
811 1 38.3821 29.5505 81.6368
812 2 39.9314 27.28 81.3714
813 1 43.0402 30.6091 78.617
814 1 40.4919 28.9555 79.1299
815 2 42.8661 27.7415 80.1979
816 1 41.5028 29.3411 82.0368
817 2 47.8323 29.5789 78.7752
818 1 44.3519 28.6162 82.5826
819 2 43.6652 30.9184 81.2684
820 1 45.2897 28.6541 79.5414
821 1 47.8329 26.7459 79.7026
822 2 47.1881 29.0983 81.3826
823 1 45.9057 31.1252 82.9852
824 1 45.9385 31.4902 79.8264
825 1 16.4339 33.9198 80.0046
826 3 17.4155 32.2321 81.8144
827 3 15.3579 33.4349 82.4911
828 1 17.7286 34.8979 82.6072
829 2 18.6735 32.5234 79.2728
830 1 19.9154 32.9906 81.6031
831 5 21.018 34.1382 78.2077
832 1 19.0753 35.3652 79.9068
833 1 22.6699 32.2184 81.9066
834 1 22.2742 35.0668 80.8683
835 3 20.5821 35.2607 82.9266
836 4 25.3751 31.6354 80.7248
837 1 23.3397 32.7221 78.9968
838 4 23.7103 36.1008 78.5624
839 1 26.6514 35.9563 78.855
840 3 25.0296 34.3464 80.0986
841 1 24.9006 33.9975 82.6457
842 4 27.1925 32.9546 79.4081
843 1 27.724 34.9654 81.627
844 2 31.8142 31.6946 79.9513
845 1 29.2753 34.8483 78.5064
846 4 29.8313 33.0206 80.8811
847 2 30.565 35.6555 80.9505
848 1 32.1352 34.1456 78.7699
849 1 32.9531 33.5145 81.6843
850 4 33.1394 36.271 80.7296
851 4 34.0032 36.4155 78.1332
852 4 34.3034 32.0387 79.304
853 2 34.8722 34.5968 79.8281
854 1 35.2982 35.2977 82.5198
855 2 36.4516 33.1059 78.6595
856 1 36.1496 32.2648 81.4065
857 2 37.2705 34.7449 80.5779
858 4 40.2676 31.713 82.9921
859 1 39.018 33.8791 78.5132
860 2 38.7555 32.9771 81.3886
861 3 38.7821 36.4795 79.661
862 1 40.9256 31.8336 80.186
863 1 42.6551 33.2048 82.3544
864 1 40.783 34.8322 80.6436
865 1 42.3155 36.0534 83.1131
866 1 38.668 36.3078 82.3421
867 2 43.6018 33.0862 79.742
868 2 43.3736 35.6009 80.1278
869 1 46.0267 34.2472 78.6759
870 1 45.3933 33.9494 81.5927
871 4 19.4384 37.3998 82.1407
872 1 21.1521 37.2799 79.0026
873 1 22.3128 38.0533 81.8585
874 1 25.0959 36.833 81.3157
875 2 26.3644 38.6973 79.5699
876 1 23.691 38.9528 79.2387
877 1 25.0391 39.727 81.9123
878 2 27.1068 38.1629 82.6795
879 3 27.663 40.2246 81.2989
880 1 28.5817 40.412 78.8215
881 1 28.6555 37.7151 80.4887
882 1 31.1347 37.1776 78.5748
883 1 31.2548 38.4252 81.503
884 1 30.3751 41.2605 81.1451
885 3 31.2216 39.7941 79.0367
886 1 33.1625 41.6353 80.173
887 3 32.7065 40.3772 82.4135
888 2 36.2849 40.1141 79.1594
889 1 33.7186 38.9065 79.6458
890 2 33.862 38.1344 82.416
891 5 36.0875 37.2378 80.2249
892 2 36.2577 37.7951 82.7788
893 1 38.2084 39.0041 81.0367
894 1 35.485 40.2655 81.7262
895 1 41.1271 36.7247 78.1857
896 1 40.9721 37.8039 80.9682
897 1 21.8147 8.48559 83.8449
898 1 21.7867 9.76629 86.5112
899 1 21.043 11.5302 83.8898
900 3 25.8003 9.82475 83.7564
901 1 24.4615 8.06087 85.2952
902 1 24.4096 9.50292 88.0125
903 1 26.7759 7.76389 87.6027
904 2 26.4678 9.98591 86.1329
905 2 23.9205 10.68 85.232
906 1 27.4598 7.77746 84.6759
907 1 28.4249 10.552 84.1532
908 1 29.2336 9.24349 86.8783
909 4 30.07 6.59602 85.2966
910 1 31.1313 9.12928 84.4161
911 3 31.5844 7.64615 87.2772
912 4 32.3214 10.0097 86.9682
913 2 33.5792 10.0441 83.5592
914 2 36.0577 9.06832 83.7542
915 1 33.5725 7.60004 85.2148
916 1 34.3887 8.1018 88.1052
917 1 35.0689 10.047 85.9916
918 1 38.0051 10.5217 85.298
919 2 36.7755 7.98766 86.4498
920 3 35.9983 6.71416 84.3745
921 1 38.6296 7.79475 84.3751
922 1 39.4442 8.96611 87.2311
923 2 40.6453 9.69777 84.5578
924 1 40.7253 11.5936 86.5015
925 1 16.363 14.8244 83.177
926 2 16.7587 14.3799 85.8453
927 1 17.9937 12.2475 84.5283
928 1 17.406 16.2259 87.8
929 2 21.7981 14.4503 84.3983
930 2 19.6785 11.6891 86.6974
931 1 19.512 14.4956 86.1437
932 5 22.0031 15.6863 86.9885
933 1 22.1814 12.7585 86.4484
934 3 18.3204 16.0079 84.4208
935 1 23.9099 12.9642 83.9128
936 1 23.8583 15.9551 83.2463
937 1 25.0928 12.2184 87.1597
938 2 26.2879 12.0435 84.7513
939 1 24.5795 14.9569 86.1173
940 1 26.5379 14.4028 83.754
941 1 28.0475 12.3161 86.7842
942 2 27.4487 14.857 86.28
943 2 31.1368 16.1415 83.1786
944 1 29.2327 13.4784 83.6175
945 3 29.932 14.339 86.1067
946 1 30.6976 11.7773 85.7073
947 1 32.1214 14.025 84.3578
948 1 32.3319 13.4361 87.5448
949 1 28.6916 16.4616 84.5144
950 1 31.3723 16.5439 85.7788
951 3 34.6267 14.0711 84.5218
952 3 33.3896 11.9167 85.2053
953 1 35.4198 12.9516 86.7781
954 3 33.8182 15.444 86.4277
955 1 35.9108 11.9321 83.7948
956 1 38.3327 13.5083 85.171
957 2 38.0832 12.2464 87.4756
958 1 37.236 14.7762 88.1932
959 1 36.5022 15.7162 85.3672
960 1 33.8158 16.5321 83.8129
961 1 40.021 12.0405 83.1716
962 2 39.7321 15.7732 86.0238
963 1 42.8364 11.8198 84.1556
964 2 41.1184 13.9404 84.9992
965 1 43.1808 13.4874 86.7897
966 1 40.1995 14.0581 88.0244
967 1 42.6991 16.4779 86.3568
968 1 41.3543 16.34 83.7008
969 1 44.0444 14.6623 84.203
970 4 44.9934 16.0109 88.1833
971 5 14.5494 19.1171 84.2182
972 1 17.0202 20.5882 84.7283
973 3 16.0726 16.8875 85.4206
974 1 15.9488 18.9521 87.2694
975 3 17.1828 21.4087 87.2646
976 1 14.6364 21.4678 86.3146
977 2 19.3235 19.116 83.2582
978 1 20.9685 16.9776 84.5542
979 1 21.9181 20.0471 83.9803
980 1 18.537 18.1537 85.8203
981 1 21.7022 18.7668 86.9531
982 1 19.6867 20.8755 86.0593
983 2 20.0154 16.9337 87.9594
984 1 24.7463 18.9841 83.4619
985 3 23.5526 17.4929 85.5119
986 1 24.9355 19.6948 86.3913
987 2 25.8961 16.8437 84.7737
988 1 26.6525 17.3273 87.3062
989 3 27.1565 18.7719 85.1009
990 1 28.0023 20.1261 87.5098
991 1 27.1692 21.3797 84.8969
992 1 29.7187 19.168 85.2508
993 4 29.3426 17.2363 87.6286
994 2 31.9009 18.4971 83.8374
995 2 31.1785 19.1162 87.5531
996 1 32.2235 20.7863 85.4138
997 1 29.9464 21.3663 83.2795
998 1 34.2723 19.5269 83.2728
999 1 33.5935 18.3068 86.4192
1000 1 35.2344 20.854 85.7338
1001 3 36.9684 19.7779 83.5903
1002 2 35.9429 18.2373 85.2307
1003 2 35.4797 16.8805 87.6371
1004 1 38.1264 17.4312 87.5436
1005 1 36.1287 19.5598 88.2338
1006 3 37.7142 19.7437 86.0304
1007 1 38.701 17.7319 84.4633
1008 1 41.7809 19.0931 84.5213
1009 3 39.815 20.7449 85.6308