# LAMMPS data file written by OVITO Pro 3.7.7
1742 atoms
5 atom types
0.0 250.0 xlo xhi
0.0 90.51 ylo yhi
0.0 181.02 zlo zhi

Atoms  # atomic

1 1 50.3875 43.0399 59.2271
2 1 55.424 43.382 59.3803
3 1 52.9919 41.8135 60.2824
4 3 41.2711 47.6072 59.25
5 1 44.2377 47.1186 59.5325
6 3 46.6014 46.4304 58.3289
7 3 48.1743 44.5766 58.967
8 1 48.2339 48.2847 57.152
9 1 50.4746 45.9152 57.9016
10 3 48.7686 47.0232 59.4864
11 1 51.3643 47.8077 60.243
12 1 52.7972 44.9203 59.7128
13 3 53.078 47.1213 58.179
14 1 55.5537 46.1131 58.3158
15 2 59.3947 48.3161 59.8975
16 1 56.4884 48.3973 60.0505
17 1 58.3009 45.9277 59.5731
18 4 61.5221 46.7653 60.218
19 5 40.9785 51.9313 58.5723
20 1 42.7611 49.7151 58.9479
21 1 43.8114 52.54 58.9359
22 1 45.4903 50.079 57.6879
23 3 46.3771 52.045 59.3146
24 1 46.8159 48.67 59.8647
25 1 51.238 48.8371 57.283
26 5 50.452 51.1649 55.7738
27 3 49.446 49.3602 59.2896
28 1 48.2695 51.3174 57.5847
29 1 51.0533 51.4461 58.9742
30 1 53.5007 49.6256 59.3523
31 1 55.0619 48.7255 57.0797
32 5 53.2083 51.138 56.726
33 1 53.7764 52.9351 59.0654
34 1 56.1169 51.4223 57.8571
35 3 57.7572 49.0643 57.8164
36 1 58.447 50.9164 59.8117
37 1 58.8036 52.8185 57.6619
38 3 60.7162 52.6086 59.5477
39 3 41.7274 54.5527 59.1819
40 3 43.9178 55.0088 57.8446
41 2 46.0844 53.4397 57.2983
42 1 45.8176 54.8029 59.8205
43 1 43.1576 56.945 59.5685
44 1 46.0694 56.5642 57.2582
45 1 48.435 54.7566 56.6355
46 1 48.6753 53.7321 59.3658
47 1 51.2465 53.6738 57.0143
48 2 48.0569 56.3545 59.1921
49 1 50.5291 56.3408 58.3318
50 1 48.722 57.8178 56.4815
51 5 54.3514 53.8041 56.279
52 2 51.7937 54.5783 59.8788
53 3 53.0356 55.3424 57.8956
54 1 54.4589 55.8328 60.0279
55 1 54.8706 56.9613 57.0873
56 3 52.2018 57.164 56.3819
57 2 52.878 57.6865 58.9415
58 3 58.2267 53.5224 60.2384
59 3 59.101 55.3015 58.6525
60 1 56.4453 54.4964 58.2372
61 2 57.3584 57.2231 58.1671
62 1 59.4289 57.7537 59.9094
63 4 63.4297 55.2803 60.4607
64 2 41.2258 59.1911 59.8549
65 3 44.3388 58.6862 57.8569
66 1 43.9678 60.0459 60.2308
67 1 46.1146 58.0207 59.8186
68 3 46.7284 59.3961 57.464
69 3 48.6406 58.7898 58.9079
70 3 50.7329 58.2316 60.1853
71 1 48.8872 61.2813 57.599
72 1 46.8688 61.0021 59.7094
73 1 51.0673 59.3191 57.6723
74 1 49.8219 60.7387 60.3554
75 1 54.0077 59.8359 57.534
76 1 55.5338 58.5232 59.7768
77 3 51.6211 61.8675 58.5678
78 1 55.3863 61.5984 59.7787
79 1 52.8239 60.0887 60.2611
80 3 57.7776 59.913 59.994
81 4 46.604 64.1085 60.2913
82 1 49.6719 63.6212 59.7494
83 1 44.7641 38.8297 65.1691
84 1 48.8253 37.3951 64.0982
85 1 51.6912 38.6313 62.3946
86 1 51.5908 37.1977 65.2269
87 5 54.181 37.6714 63.6686
88 4 56.7706 38.1506 65.031
89 2 40.4084 43.0582 63.7855
90 2 42.2997 43.3781 61.9166
91 2 44.8559 42.9289 61.3111
92 1 43.2055 43.7025 64.4284
93 1 45.834 40.8639 63.0962
94 2 44.1983 41.3833 65.1928
95 1 47.6235 42.6616 61.0456
96 1 50.1759 41.3671 61.7064
97 2 48.2047 39.5554 62.3676
98 1 50.1868 40.0131 64.358
99 3 48.2074 41.8215 63.7255
100 1 50.456 42.9493 64.6486
101 3 47.4721 39.6065 64.9203
102 3 52.9007 39.4981 64.9585
103 2 51.5305 43.6311 62.1702
104 1 55.9838 41.6231 61.7452
105 2 54.1909 39.4919 61.5131
106 1 52.8665 41.4206 63.1827
107 3 55.1759 42.5023 64.2221
108 3 55.1272 40.0801 63.8208
109 3 57.7812 43.5365 60.6357
110 1 59.0724 41.8295 62.3174
111 1 60.3901 40.7059 64.8741
112 4 57.4588 39.301 62.6219
113 1 57.391 41.3043 64.8251
114 2 59.5092 43.3355 64.5367
115 1 61.914 42.87 63.2364
116 3 41.9176 45.684 60.6598
117 2 39.8776 44.3887 61.7124
118 1 41.4839 45.9433 63.4232
119 1 39.5444 46.9989 61.1765
120 1 38.58 45.8369 63.8624
121 3 40.2548 48.4848 63.2228
122 5 44.1137 45.4054 61.9686
123 1 46.0431 43.7879 63.6255
124 1 42.5145 48.2263 61.7051
125 2 45.4017 47.87 62.0585
126 1 44.1147 46.9656 64.3224
127 1 46.8396 45.6857 61.0969
128 2 48.6123 44.1673 63.028
129 1 49.8811 45.285 61.0428
130 1 48.8645 48.092 62.023
131 1 47.1233 46.7179 64.1147
132 1 50.1366 46.0401 64.145
133 2 54.1587 47.1706 60.6326
134 1 54.2125 44.0575 62.244
135 4 52.3752 46.3258 62.4441
136 2 56.0002 45.5423 60.9736
137 3 52.5535 44.5123 64.3207
138 5 55.0361 46.7874 63.3422
139 1 57.0956 44.1465 63.141
140 3 59.047 45.6859 64.246
141 1 57.7176 47.0293 62.4379
142 1 60.5221 47.7098 62.7425
143 1 59.9729 44.7875 61.899
144 2 62.9478 45.4309 62.3166
145 3 63.8487 44.0947 64.7407
146 1 61.7065 45.7292 64.6738
147 1 63.3202 48.2429 62.3157
148 1 64.6419 46.7743 64.7814
149 5 37.6577 48.6074 62.7374
150 1 40.1826 49.9409 60.7907
151 2 38.982 49.8114 64.8665
152 1 38.1585 51.4419 62.647
153 1 41.121 51.0997 63.5062
154 1 40.4282 53.0577 61.111
155 1 39.0737 52.6711 65.1937
156 2 44.8267 50.1763 60.5309
157 2 42.6808 51.4622 61.2411
158 1 45.611 52.3892 61.7892
159 1 44.1713 50.1046 63.1502
160 2 42.3122 48.9293 64.6191
161 1 46.2691 51.6558 64.6905
162 1 43.4283 52.9688 64.0065
163 3 45.54 48.9951 65.1691
164 3 50.789 50.1477 61.4995
165 1 48.2077 51.0419 60.8527
166 2 46.8954 49.697 62.8922
167 1 50.8265 49.1394 64.042
168 1 49.0186 51.5832 63.6161
169 1 50.5318 52.8711 61.5017
170 5 55.5513 50.9607 60.7155
171 2 52.9525 51.5494 61.2238
172 1 53.33 49.1267 62.4718
173 2 56.0861 49.2423 62.6792
174 3 51.8502 51.6691 63.4805
175 1 54.5402 51.5796 63.5787
176 2 59.8704 52.3977 61.8779
177 3 58.6781 49.4695 61.9325
178 1 58.1942 49.4399 64.5464
179 1 57.496 51.6622 62.7352
180 5 60.721 50.5035 63.4852
181 1 59.1831 52.3624 65.2067
182 5 61.2523 50.1088 60.7881
183 4 64.1481 50.4669 60.6613
184 1 62.5911 52.7389 61.644
185 1 65.4683 52.456 62.3483
186 1 62.4443 48.7614 65.1517
187 3 63.3794 50.806 63.3795
188 2 61.2267 53.2102 63.8527
189 1 63.9435 53.206 64.7123
190 5 65.8013 49.4325 63.1188
191 1 67.2386 51.6338 64.4633
192 2 36.1633 53.2877 64.2319
193 4 36.0552 56.483 63.9068
194 1 40.896 56.1969 61.6221
195 1 38.4073 54.4634 62.788
196 3 41.0045 53.9664 63.5154
197 4 38.76 57.1817 63.3633
198 1 41.479 57.9523 64.2228
199 1 43.2646 54.3401 61.3674
200 1 44.6034 57.1324 62.2101
201 1 45.6931 54.7727 63.6046
202 3 42.7936 55.7061 63.6563
203 4 44.3967 57.5871 65.2423
204 2 47.9422 53.7239 62.1875
205 3 47.1126 56.1389 61.6559
206 1 49.8457 55.8215 61.3503
207 1 50.6134 54.4486 64.0982
208 2 48.3087 55.647 63.7495
209 1 50.2587 57.6451 63.7762
210 1 47.0358 57.913 63.9197
211 1 55.8182 53.6445 61.3266
212 1 52.5721 57.1965 61.7117
213 1 53.0867 54.0768 62.2591
214 1 55.4952 54.3117 64.344
215 2 53.0693 55.8911 64.0991
216 2 55.2001 56.5781 62.7363
217 1 60.4741 54.9808 60.9305
218 4 57.3094 56.0672 60.7152
219 1 58.2722 54.4739 62.9463
220 1 57.2696 56.7467 64.7468
221 1 59.9498 55.3888 65.0982
222 2 59.5401 56.9734 62.6938
223 1 62.3333 55.4895 63.2214
224 1 61.9985 57.8299 61.3141
225 2 64.9852 55.1996 62.7206
226 3 63.995 57.8714 63.1335
227 1 66.6682 54.5056 64.8802
228 3 66.3519 57.1255 64.0368
229 1 39.9188 59.7357 62.4279
230 3 37.7619 59.3269 64.2575
231 1 38.9141 61.7598 64.5633
232 2 41.4945 60.8875 64.3304
233 1 42.1225 61.7305 61.8789
234 2 42.3618 58.5077 61.8181
235 2 46.2667 59.6837 62.0422
236 1 43.9208 59.8372 63.4898
237 1 45.3035 62.2006 62.1351
238 1 43.8466 62.5646 64.8713
239 1 46.4407 60.7708 64.8315
240 5 48.4943 58.3307 61.4389
241 5 48.7318 60.4663 63.0984
242 2 51.2865 59.7014 62.4057
243 2 47.9864 62.4932 61.7556
244 1 51.0374 61.0452 64.8076
245 1 53.0582 58.5739 64.3244
246 3 54.632 59.0413 62.1744
247 1 53.545 61.3831 62.8443
248 1 55.605 62.576 64.7219
249 1 55.7931 59.3966 64.7147
250 5 58.409 62.4036 60.5382
251 4 57.2776 58.2129 62.2305
252 1 59.7619 59.9142 62.0478
253 1 58.7375 59.4175 64.8587
254 1 56.7272 60.9934 62.3826
255 1 60.5787 62.694 62.6018
256 2 58.4751 61.994 64.1542
257 2 60.991 60.8727 64.6639
258 1 61.3442 58.0976 64.3314
259 1 62.7776 60.4112 62.8062
260 1 41.1032 63.7092 64.1022
261 2 43.3828 64.198 62.5534
262 1 45.9279 64.5879 63.8042
263 1 43.4444 66.2152 64.4836
264 2 51.2608 65.3756 61.8296
265 2 48.0909 62.9407 64.2514
266 1 50.6798 62.7171 62.4474
267 1 48.5488 65.0915 62.4099
268 2 46.6954 67.2722 64.0507
269 1 49.5983 67.2928 64.1132
270 1 50.349 64.502 64.8701
271 1 52.8897 63.3807 60.5168
272 2 55.3537 63.3706 61.943
273 1 54.3613 65.9564 61.7735
274 1 53.154 64.2458 63.6966
275 3 55.7126 65.087 63.9077
276 2 52.2829 66.9469 63.5624
277 1 57.8707 64.2191 62.7204
278 1 57.8337 66.6209 64.6628
279 1 60.2687 64.7637 64.7445
280 2 62.5263 62.9575 64.5544
281 1 54.8865 67.4983 64.4743
282 4 41.6673 38.3395 69.1455
283 1 44.491 37.5884 68.2524
284 4 46.2476 35.367 68.885
285 1 46.798 37.0232 66.2888
286 1 49.4314 35.7494 66.8597
287 2 47.7692 37.5496 68.7986
288 1 50.4417 37.2711 69.3346
289 1 49.3337 38.7735 66.9503
290 3 48.8525 35.1664 69.4409
291 3 52.0264 35.725 67.6905
292 4 54.5347 36.5779 66.3185
293 1 54.0848 36.1867 69.4463
294 1 52.7999 38.3701 67.674
295 4 56.5525 37.5089 68.2733
296 1 39.1181 42.3029 67.6501
297 1 41.5127 41.6326 65.9168
298 2 41.1458 41.1336 69.2487
299 1 42.0085 43.4749 68.2382
300 1 46.419 39.9179 67.3434
301 1 44.7195 43.0198 67.2508
302 3 46.5845 41.9747 65.5707
303 1 43.432 40.3696 67.769
304 3 45.3433 41.5423 69.4605
305 3 48.8864 41.3354 66.2195
306 1 50.7584 42.7087 67.6758
307 1 51.1154 40.1679 69.3227
308 3 48.4665 40.177 69.158
309 1 47.6035 42.4613 68.1368
310 2 51.4484 40.4059 66.6359
311 3 55.7421 42.519 66.829
312 1 55.0684 39.9044 66.4611
313 1 53.1874 42.2943 65.9366
314 3 53.5267 41.2026 68.3511
315 4 54.848 39.1945 69.4892
316 2 52.2716 42.5303 69.9878
317 2 55.2381 42.7056 69.5785
318 4 58.5337 39.3457 66.935
319 4 56.7753 40.8128 68.5788
320 1 58.7816 42.3581 67.2476
321 4 59.5058 40.477 69.8081
322 1 61.6028 43.1199 66.224
323 2 65.3037 43.3418 66.6158
324 5 63.5599 41.3743 65.4322
325 1 63.5839 42.2905 68.4546
326 1 60.9132 43.5152 69.0808
327 4 61.378 40.4366 67.7387
328 1 37.041 44.1514 69.0842
329 1 37.0275 47.7319 65.4349
330 1 36.1583 46.8484 68.1571
331 2 37.4369 44.4727 66.2325
332 1 40.3033 44.5451 66.0072
333 2 39.6064 44.6026 68.9367
334 2 38.6313 46.3333 67.2832
335 1 40.3485 47.6056 65.7832
336 5 41.3221 46.3326 68.1876
337 1 38.9101 47.1024 69.7951
338 2 42.9114 45.5061 66.343
339 2 45.3985 45.161 65.8488
340 2 46.5205 44.827 68.0859
341 1 46.3994 47.2907 67.1072
342 1 44.1338 45.6635 68.9339
343 2 42.4388 48.1338 69.7918
344 1 43.3928 48.138 67.0516
345 1 44.9931 48.4314 69.8971
346 5 48.06 44.2629 65.7349
347 2 51.3703 45.0404 66.4272
348 2 49.322 47.0731 66.4748
349 1 49.1939 45.1068 68.2205
350 2 51.3463 44.757 69.8275
351 2 49.9565 47.0679 69.7298
352 5 52.0505 46.8675 68.2209
353 1 54.8737 44.8258 65.4231
354 1 53.5054 44.2773 68.1408
355 1 52.7471 47.2599 65.3619
356 3 54.6778 46.7716 67.1532
357 2 54.3915 46.4896 69.6546
358 1 56.5132 44.7605 68.0985
359 1 59.6505 45.3163 66.8785
360 2 57.4669 44.0799 65.706
361 1 57.1879 46.8756 65.7974
362 2 58.8142 45.3436 69.367
363 2 59.8702 47.6499 65.4346
364 1 56.6257 47.7729 68.6728
365 3 59.2657 47.6833 68.0766
366 1 61.4473 46.466 69.656
367 1 63.3527 45.235 67.3171
368 3 61.6314 47.2299 67.1343
369 2 64.895 48.1799 67.2082
370 1 64.4763 46.8035 69.4892
371 2 65.4549 44.2226 69.2598
372 1 66.3433 45.8936 67.1784
373 2 66.8591 48.4261 65.5286
374 1 67.6043 48.3546 68.3752
375 4 34.8995 49.3681 67.3913
376 1 36.5917 50.862 65.4296
377 4 34.3705 52.2794 66.9019
378 3 36.9011 53.1056 66.9525
379 1 36.3629 51.3633 69.0189
380 1 38.1403 49.3901 67.5964
381 2 40.5419 48.7403 68.4742
382 1 41.0121 50.478 66.5785
383 2 41.6313 52.9939 65.9788
384 1 39.1753 52.4271 68.0869
385 1 41.2301 51.084 69.5376
386 1 46.0195 50.3586 67.5063
387 5 43.706 50.9393 65.9619
388 3 43.4929 50.2569 68.593
389 1 43.4285 52.8854 68.1525
390 2 46.5887 52.9952 68.1752
391 1 48.2121 49.3411 65.4559
392 5 50.8809 49.1655 66.9666
393 2 50.6528 51.6496 65.6333
394 1 48.8486 51.6708 67.5677
395 1 48.4382 48.9077 68.6349
396 1 51.2074 49.4524 69.9648
397 1 51.8699 51.6994 68.0385
398 3 52.8626 50.397 65.4967
399 1 55.2337 49.1307 65.3094
400 1 54.8386 51.8776 67.1618
401 3 56.0073 50.4006 69.1786
402 1 53.7746 49.1899 67.9051
403 3 56.6155 51.7333 65.2742
404 3 57.2732 49.7721 67.0059
405 1 58.646 50.1008 69.425
406 4 60.4628 52.5291 67.7074
407 1 60.2038 49.8722 66.8888
408 5 57.6449 52.2618 67.7393
409 3 61.9934 51.4589 65.5209
410 1 64.8148 50.3871 65.6678
411 1 63.3134 52.086 67.6935
412 1 62.8147 49.2249 68.481
413 4 61.4187 51.502 69.8366
414 1 65.6927 50.6655 68.6555
415 3 67.5086 50.5389 66.7639
416 2 68.373 51.3679 68.9267
417 3 65.8626 52.6322 66.711
418 3 68.269 53.0392 66.6737
419 1 35.3054 55.1394 66.5086
420 1 34.6028 54.0406 69.2656
421 1 36.6292 56.5262 68.8185
422 2 33.8307 56.7285 68.4133
423 3 37.2073 53.9746 69.3253
424 2 37.687 54.9178 65.3324
425 1 37.8187 57.393 66.2033
426 1 40.327 55.5495 65.53
427 1 39.9436 57.2431 68.2554
428 3 38.5634 55.0094 67.5922
429 3 41.0425 54.38 67.903
430 2 42.0945 57.4542 66.8131
431 3 45.2728 53.5082 66.1912
432 1 43.2915 55.1904 66.215
433 2 46.498 55.909 65.794
434 1 42.6848 56.0545 69.1836
435 1 45.5712 55.5773 68.1946
436 1 48.0526 53.7364 65.6273
437 2 50.5087 54.0165 66.8906
438 1 49.1425 56.6056 66.2898
439 3 48.2237 54.89 68.0666
440 5 50.0293 53.6526 69.4485
441 2 47.7012 57.0598 69.2692
442 1 50.4831 56.3947 69.0353
443 1 52.8807 53.3007 65.5168
444 3 54.7999 54.6506 66.9105
445 1 52.2041 56.1555 66.5522
446 2 54.7545 56.8811 65.7408
447 2 52.8622 54.1106 68.4669
448 1 55.8396 53.8797 69.32
449 1 53.9543 56.5759 68.8938
450 3 57.4282 54.2926 66.1234
451 2 59.1696 57.4634 66.6758
452 1 59.2664 55.0162 68.0434
453 1 56.6739 56.4101 67.7284
454 1 59.4225 57.7118 69.3856
455 1 64.2293 56.3309 65.3111
456 2 61.9836 54.1416 66.2861
457 5 64.4842 54.6868 67.5299
458 1 61.849 56.7759 67.0533
459 1 62.0836 54.6043 69.1957
460 3 64.3622 57.4372 67.7836
461 1 65.2489 56.1117 69.9846
462 5 62.4081 57.3709 69.764
463 1 66.9357 56.2278 67.2808
464 1 67.0513 53.7567 68.9745
465 2 67.9306 56.8818 69.9428
466 1 35.0313 58.1145 66.2486
467 1 36.8537 60.4791 66.5016
468 1 35.0871 59.2419 68.9918
469 3 36.2028 62.0945 68.5209
470 1 39.8814 59.5004 66.2568
471 1 41.5289 61.9844 66.821
472 3 37.7726 59.0155 68.5433
473 1 41.9233 59.5422 68.649
474 1 38.9907 61.5979 68.3559
475 3 41.4096 62.1203 69.6055
476 3 39.6586 59.626 69.9346
477 2 42.7894 59.6278 65.958
478 1 46.6568 58.3552 66.9246
479 1 44.5825 60.7533 67.3984
480 2 44.2317 58.029 68.1268
481 1 46.1565 59.357 69.706
482 1 46.049 62.4324 69.7438
483 3 43.78 60.9511 69.9287
484 2 47.3614 60.8767 67.8111
485 1 49.4064 59.1335 67.9966
486 2 48.8432 59.4255 65.4541
487 4 49.1427 62.1977 66.5132
488 1 49.3496 61.8856 69.4927
489 2 51.3388 58.6616 66.2796
490 1 54.3894 59.1165 67.3555
491 3 53.5972 60.9228 65.5058
492 2 52.0595 58.5574 68.7591
493 1 51.7604 61.0213 67.6992
494 1 54.4583 62.2841 67.5896
495 2 52.5972 62.3504 69.8296
496 3 56.1438 60.7431 68.7368
497 2 57.2185 58.9279 67.2266
498 2 57.1946 61.1561 66.2945
499 1 58.7318 60.6227 68.7971
500 1 59.8165 62.3703 66.4928
501 5 56.6126 58.4218 69.9008
502 1 60.9041 59.5848 67.153
503 2 61.1843 59.7223 69.9944
504 1 63.5621 59.8664 68.6165
505 1 63.6853 59.3502 65.536
506 2 62.6885 61.6093 66.5912
507 2 65.4703 60.9731 66.8848
508 3 61.5806 61.9176 68.8145
509 3 66.076 58.4619 66.1495
510 1 66.3909 58.9353 68.8269
511 2 67.0158 61.6948 68.8862
512 4 40.5395 66.0824 65.913
513 1 40.7176 64.602 68.4823
514 3 39.2713 63.5913 66.4656
515 2 38.9606 66.3116 69.7111
516 1 37.9177 63.8012 69.9597
517 2 42.5068 64.3964 66.2549
518 1 46.329 63.0978 66.663
519 3 44.9064 65.1744 66.3144
520 1 43.0066 66.6208 67.5917
521 1 45.8137 65.453 68.8162
522 1 43.5738 63.4981 68.5235
523 4 50.7882 64.0201 67.7888
524 1 47.7217 65.6778 66.0627
525 4 50.1766 66.6858 67.08
526 2 48.1639 64.0953 68.382
527 3 47.5293 67.3651 68.3074
528 4 49.3642 66.0969 69.4266
529 2 52.5761 63.2558 66.0405
530 1 55.4348 65.0433 66.5505
531 1 53.2946 64.923 68.8607
532 1 52.7874 66.2029 66.1396
533 3 54.5454 67.1325 68.3688
534 1 56.6954 65.7224 69.3552
535 3 57.7425 64.0112 65.4619
536 1 58.8428 65.6531 67.3616
537 1 57.2838 63.1308 67.9865
538 2 59.8511 63.6832 68.8678
539 1 62.0845 64.2326 67.1688
540 3 61.0936 66.7826 66.5363
541 1 64.2572 62.7562 68.6726
542 1 63.9262 65.7394 69.1525
543 2 61.113 65.9514 68.942
544 2 41.199 67.6013 69.2999
545 1 45.5582 67.8535 66.5619
546 1 44.6268 68.1424 69.6221
547 1 48.4608 68.9415 66.3957
548 1 47.0376 69.8295 69.1951
549 1 49.8197 68.8824 69.2088
550 4 51.7459 70.6458 68.0456
551 1 54.2886 69.1962 66.8359
552 5 51.5534 68.8807 65.6735
553 3 52.2271 67.958 68.1441
554 1 53.8423 69.5148 69.8394
555 2 56.5246 67.4529 66.8965
556 2 58.8955 68.3438 66.8458
557 1 56.6525 68.8493 69.2196
558 1 59.4439 67.941 69.5675
559 1 41.3581 38.0978 72.1924
560 1 44.1805 37.0918 71.4824
561 2 45.7979 38.7625 72.9222
562 2 43.2481 36.9841 74.2386
563 1 45.9429 36.2199 74.1332
564 1 47.3366 36.5043 71.4052
565 1 50.6652 37.0242 72.457
566 3 48.5223 35.7633 73.7594
567 3 49.3086 34.6305 71.7923
568 1 48.304 38.4393 73.7423
569 3 48.9089 38.603 70.9918
570 1 50.919 34.4306 73.9969
571 4 55.8893 34.6559 71.2188
572 1 51.5753 34.8202 70.392
573 1 53.4573 35.5957 72.5737
574 1 55.726 37.4935 71.7023
575 3 55.7147 37.6345 74.3456
576 2 52.6371 38.1412 70.659
577 1 53.3226 38.577 73.1855
578 3 55.7475 35.2748 73.9848
579 5 58.09 35.8873 72.6111
580 4 58.5156 37.8056 70.5249
581 1 60.5462 37.1081 74.1672
582 1 58.1022 38.6515 73.4932
583 4 60.9799 38.85 71.7573
584 2 36.3541 43.2473 72.0549
585 4 36.6457 40.5351 73.8177
586 1 38.6565 42.4025 73.4301
587 3 39.6697 39.4653 70.5728
588 1 38.4717 41.8541 70.5344
589 2 39.1934 39.7376 73.1379
590 1 41.2711 41.1722 72.0352
591 3 40.6753 43.3308 70.6778
592 1 46.1222 39.0582 70.2281
593 4 43.3776 39.9075 70.6142
594 5 43.3371 39.5287 73.4801
595 4 45.0563 41.3108 72.2818
596 2 43.3027 42.7631 73.634
597 1 43.41 43.1257 70.813
598 1 46.4975 43.6858 70.7071
599 4 46.8821 41.1443 74.5501
600 1 49.5177 42.6188 70.3767
601 1 47.7526 40.8436 71.8126
602 2 48.5307 43.1206 73.0217
603 1 50.7884 40.1714 72.1942
604 4 49.56 41.2991 74.5447
605 1 53.7849 40.9675 71.4115
606 3 54.0767 42.7097 73.4981
607 2 52.4757 41.0764 74.2489
608 1 51.456 43.142 72.6004
609 1 55.5358 40.3424 73.9767
610 1 56.3347 42.6465 72.1588
611 4 56.9386 40.0816 71.1727
612 4 58.1126 42.8695 70.0409
613 2 58.924 41.3776 72.5534
614 1 58.2422 43.547 74.2019
615 3 60.7382 42.7599 73.8596
616 1 60.7208 40.1822 74.3625
617 4 63.3362 39.8988 70.1854
618 1 63.5675 40.3756 73.2688
619 1 61.6156 41.8716 71.4543
620 1 64.8311 42.3461 71.2105
621 1 63.145 43.6309 73.4453
622 1 65.9968 42.3498 73.923
623 1 36.2013 45.4128 73.8422
624 5 35.9241 46.1412 70.9671
625 1 34.911 48.0498 72.9924
626 1 41.0387 44.0473 73.3462
627 1 37.9344 47.811 72.6032
628 1 38.6191 44.876 71.6492
629 1 41.6827 45.8107 70.9994
630 2 38.8155 45.5649 74.2643
631 2 40.8022 46.7731 73.4556
632 1 45.8712 43.8612 73.6085
633 1 46.3044 47.0768 72.7523
634 1 43.4115 45.5112 74.2435
635 3 44.4478 45.5174 71.6401
636 1 43.3029 47.9622 72.5968
637 1 47.2342 46.5097 70.0569
638 4 49.3298 45.1965 71.545
639 4 48.442 45.4706 74.0676
640 4 51.0774 46.2057 73.4712
641 1 49.36 48.1159 72.1252
642 2 55.7484 44.8335 73.6727
643 1 53.8124 44.3764 71.3542
644 5 54.4302 46.9321 72.824
645 5 52.1734 46.8453 71.1165
646 1 53.115 44.8303 74.7068
647 1 59.9134 44.4722 71.8096
648 1 58.9375 47.5241 70.8425
649 1 56.5621 45.4695 70.994
650 1 58.0589 46.3702 73.3655
651 1 60.6863 47.9495 73.1965
652 2 63.0952 44.3617 70.4757
653 3 62.1439 45.8234 72.2671
654 1 65.1558 45.4138 72.1331
655 1 63.4308 46.639 74.556
656 1 63.3429 48.1686 71.8347
657 2 67.0881 46.1472 70.0317
658 4 67.5316 43.8912 71.6327
659 1 67.3403 45.1747 74.3727
660 1 68.2645 47.1375 72.3134
661 2 65.6913 47.6558 73.451
662 2 69.8929 46.6927 74.5776
663 2 36.7376 48.6181 70.1017
664 5 34.2224 48.9894 70.2113
665 1 36.3623 50.4975 71.9567
666 3 34.1043 51.6833 70.4091
667 2 35.8742 53.112 71.5948
668 1 33.3237 50.5683 72.6253
669 3 36.3977 49.7176 74.6102
670 1 35.2264 52.124 74.222
671 2 38.7397 50.004 70.1953
672 1 40.6053 48.826 71.6291
673 1 38.5601 52.4746 71.0193
674 1 40.9635 51.6756 72.4578
675 2 38.6784 50.3693 73.4317
676 2 40.8435 49.0585 74.3203
677 1 37.9984 53.0552 73.7937
678 3 43.0909 50.2508 71.1627
679 5 45.2379 50.062 72.5885
680 1 43.7543 52.6192 72.283
681 1 45.4492 51.5303 70.1291
682 3 46.6122 52.4684 72.4009
683 3 45.2681 48.5097 74.7131
684 1 43.1928 50.6997 74.4868
685 3 47.1844 49.168 71.0145
686 4 47.6208 50.1574 73.4118
687 1 48.5196 51.3846 70.5652
688 1 50.2294 50.8302 73.1186
689 3 51.2957 51.9321 70.8536
690 2 50.6576 48.5766 74.6153
691 1 47.9516 52.6608 74.68
692 1 52.6181 49.248 72.7142
693 2 53.9525 48.7934 70.4693
694 1 53.8758 51.5307 70.2843
695 1 52.8555 52.4119 73.0205
696 1 55.1563 50.1402 73.9324
697 3 55.3262 52.7884 74.0398
698 1 56.3265 48.6406 71.5168
699 1 56.6302 51.5906 71.6704
700 2 57.8681 49.1761 73.6194
701 2 59.2107 50.3492 72.0302
702 1 59.7416 52.8196 73.1442
703 2 57.5698 51.8589 74.3021
704 1 58.8551 53.0501 70.3062
705 2 61.0566 49.0587 70.5012
706 1 64.96 50.26 73.4275
707 1 61.8794 50.7783 72.507
708 3 63.9864 50.6509 70.7673
709 2 62.6977 49.3757 74.6464
710 1 63.8825 52.8886 72.9321
711 1 66.1456 48.7852 70.9245
712 3 67.4607 49.7305 73.0859
713 1 69.0531 49.7403 70.9719
714 1 66.7345 51.8213 71.353
715 3 68.8508 51.7588 73.2586
716 1 69.9667 49.4116 73.9175
717 2 69.5061 52.5548 70.9815
718 4 66.712 52.9739 73.9174
719 1 34.4733 56.3473 71.1247
720 1 33.3574 53.7043 72.3602
721 2 35.4847 54.9032 73.7154
722 1 33.4931 56.8151 73.8438
723 2 36.2196 57.448 73.3598
724 1 37.202 55.3786 71.6935
725 2 40.118 54.3728 72.7668
726 1 39.7365 55.0266 70.1627
727 3 38.5757 57.4213 70.4207
728 3 39.1063 56.7106 72.757
729 2 37.7901 55.6038 74.5129
730 1 41.0246 56.4271 74.4729
731 2 41.8745 53.4745 70.3663
732 1 41.0718 57.6472 71.2592
733 2 41.9524 53.5455 74.2738
734 2 44.503 54.17 70.2534
735 1 42.6847 55.3521 72.1292
736 3 45.3822 54.6571 72.752
737 1 45.3648 56.6682 71.0173
738 1 46.1425 57.0584 74.0601
739 1 47.2478 54.296 70.5589
740 1 49.6906 53.6025 72.3807
741 1 49.0245 56.4289 71.7453
742 2 47.6416 54.9616 73.5093
743 1 51.5267 55.49 73.6993
744 3 54.7763 53.6627 71.6959
745 4 52.3866 54.5698 70.967
746 1 55.153 56.3679 71.4952
747 2 54.387 55.001 73.7336
748 1 52.1984 57.5167 71.3324
749 4 53.6733 57.3979 74.0253
750 2 56.2084 56.7346 74.1075
751 1 57.1676 54.4247 72.6535
752 3 57.6197 55.7218 70.2261
753 1 60.1585 55.5074 71.4318
754 1 58.0218 57.4656 72.3299
755 1 59.3303 55.7122 74.4248
756 4 64.4236 53.2542 70.1896
757 3 61.7538 53.388 71.5246
758 2 61.7346 54.3862 74.0758
759 5 63.0694 55.7724 72.1147
760 2 65.512 54.9182 72.4391
761 2 62.1661 56.8488 74.5796
762 1 64.69 57.5984 73.9994
763 1 68.0333 54.7361 71.6681
764 1 69.6617 54.2277 74.1688
765 3 66.5979 57.1384 72.1806
766 2 69.0711 57.131 72.8354
767 1 67.1508 55.719 74.5615
768 2 36.5281 58.1854 71.0976
769 1 34.3159 59.2504 72.0473
770 1 36.9534 60.7938 70.6943
771 1 36.5641 60.2774 73.7499
772 5 38.7802 59.2345 72.3066
773 2 40.801 59.0878 74.0324
774 2 39.3412 61.765 71.2947
775 1 39.5065 61.5114 74.0468
776 1 41.6649 60.4964 71.7586
777 2 43.5568 58.5574 70.6051
778 1 43.3977 58.051 73.3251
779 1 45.0727 60.3534 72.3361
780 4 42.9033 60.8808 74.2724
781 3 47.0166 58.3884 72.0278
782 1 49.1408 59.0996 70.7458
783 2 50.3457 58.6527 73.0553
784 2 47.5318 61.1393 71.5845
785 4 49.9658 61.398 72.2873
786 1 47.9593 59.666 74.0629
787 2 47.8059 62.283 73.8552
788 2 51.492 60.2667 70.5077
789 1 54.1513 59.9607 70.3054
790 1 52.7943 59.9 73.0354
791 2 55.5 58.8994 72.5131
792 1 55.3045 61.668 72.949
793 1 52.4581 62.6979 72.5899
794 3 59.0591 59.6106 71.3733
795 3 57.0118 60.8696 71.0523
796 1 57.6757 60.0203 73.8047
797 4 60.5967 60.7527 73.32
798 2 57.8933 62.6458 72.937
799 1 59.8902 62.0777 71.0139
800 3 65.3877 61.0513 70.556
801 1 64.4466 58.6711 71.3184
802 1 61.2212 58.1377 72.3037
803 1 62.8689 61.2911 71.3694
804 1 65.52 60.9744 73.3057
805 4 62.941 59.7587 74.0221
806 1 67.6203 59.4843 71.4661
807 2 68.5842 61.1813 73.7017
808 1 67.4073 58.7816 74.4494
809 1 67.5458 62.4346 71.5089
810 1 37.2537 63.136 72.831
811 2 37.9644 65.7851 72.263
812 1 40.554 64.0861 71.3842
813 3 41.6956 63.1177 73.788
814 1 40.3374 67.1361 71.9061
815 2 39.4938 64.42 73.6816
816 3 41.824 65.5735 73.357
817 3 45.8775 62.8966 72.497
818 1 42.907 65.7962 70.6748
819 1 43.3597 62.9504 71.5873
820 3 45.3876 64.9595 71.3745
821 1 44.0977 64.5924 73.907
822 3 44.5955 66.9534 72.4781
823 1 46.9936 65.08 73.8828
824 1 47.9362 64.1085 71.1751
825 1 50.934 64.2556 70.7269
826 1 49.7619 64.0207 73.5701
827 1 47.1323 67.23 71.0321
828 2 49.4821 66.262 72.0577
829 1 49.3026 67.2245 74.6272
830 1 55.1113 63.0029 70.3921
831 3 53.5426 64.9352 71.6242
832 3 54.6213 66.8258 73.5822
833 1 51.9326 66.1244 73.532
834 1 54.2666 64.3193 74.2358
835 1 51.9377 67.1703 70.6501
836 4 54.7857 67.0057 70.9702
837 1 56.378 64.9664 72.3633
838 2 57.6736 63.2995 70.5598
839 1 59.3913 65.2682 71.0184
840 3 57.4892 67.2934 71.4273
841 1 58.8783 65.0153 73.9001
842 2 60.7707 63.2605 73.193
843 5 65.1017 63.7925 71.2083
844 1 63.4188 63.3198 73.5419
845 2 64.0627 65.895 72.6011
846 1 62.1358 64.0767 70.689
847 3 61.5912 65.5528 72.9648
848 1 62.2275 67.2747 71.0177
849 1 66.4201 63.8055 73.9859
850 3 42.5876 68.4311 71.3401
851 1 44.808 69.6143 72.2528
852 1 42.6691 68.1284 74.0125
853 2 47.4357 69.9263 71.9511
854 1 49.9136 68.8887 72.2716
855 3 49.1761 71.0669 70.6465
856 4 46.8252 68.0157 73.657
857 1 48.3911 70.2209 74.656
858 2 50.9454 71.1168 73.5118
859 2 51.617 70.4766 70.9318
860 1 53.0279 68.8942 72.9494
861 3 55.5957 69.0334 72.09
862 1 53.84 71.5416 72.2197
863 2 56.0283 71.1818 70.6815
864 1 59.9286 67.6693 72.77
865 1 56.1774 70.7071 74.0338
866 1 58.1706 69.8828 71.8217
867 1 57.123 67.6623 74.0514
868 4 40.2756 38.2755 75.1211
869 5 42.0831 37.1537 78.5278
870 1 46.5344 35.1845 78.4487
871 1 44.5393 36.5359 76.8538
872 1 42.8133 38.8939 76.2749
873 5 45.6952 38.8086 75.6016
874 2 47.3786 36.9548 76.3961
875 1 46.8865 38.2469 78.7028
876 1 48.1066 34.388 75.9891
877 2 50.9525 34.291 76.8522
878 1 49.302 35.8666 78.637
879 1 49.9552 36.6588 75.7905
880 4 50.1687 38.5344 78.1546
881 5 53.4972 34.443 75.4396
882 3 52.4657 36.7121 74.8111
883 1 52.4413 36.6101 77.4871
884 4 54.0753 38.7493 76.0107
885 1 55.3116 36.3125 76.6513
886 5 53.3521 38.7161 79.4631
887 4 54.6649 36.0437 79.4681
888 5 57.9174 36.2195 75.3756
889 2 57.6987 36.6857 78.1721
890 1 56.2162 38.696 79.3749
891 2 56.9132 38.5577 76.4395
892 1 59.5986 38.2257 76.7612
893 4 61.7918 38.0681 78.7805
894 1 62.6474 38.61 75.9038
895 1 36.6044 43.0049 75.4696
896 4 37.0393 42.1435 78.3108
897 1 41.2173 41.2158 74.9811
898 1 40.5921 39.6716 78.2381
899 1 38.5549 40.7126 76.1642
900 4 39.496 43.5782 75.9007
901 1 39.9573 42.6763 78.4615
902 5 42.6251 41.6201 77.4651
903 1 44.1258 39.4073 78.9586
904 4 44.3547 41.2373 75.3015
905 1 44.7953 43.5819 76.7064
906 5 46.1415 40.9801 77.4984
907 1 44.5574 42.4067 79.4788
908 2 47.051 43.3676 78.902
909 4 48.4363 39.5083 76.3989
910 5 51.0569 39.028 74.9805
911 4 48.6489 41.2137 78.5059
912 4 50.7696 41.848 76.9822
913 1 47.7587 43.4188 76.1834
914 4 50.4758 43.7228 75.1701
915 4 52.3068 39.8846 77.2799
916 4 55.6554 40.6347 77.2145
917 1 53.6813 42.3537 76.2626
918 3 55.9761 42.6822 75.0861
919 4 53.62 41.5319 79.1232
920 1 58.6407 40.5378 78.4964
921 1 57.346 43.2471 77.3387
922 1 58.0918 40.8419 75.5007
923 1 60.1773 42.7817 76.5064
924 3 61.0395 40.405 77.2872
925 1 63.4881 40.5091 78.2436
926 4 61.4415 42.8237 79.0794
927 4 62.8973 41.8066 75.7144
928 4 65.2841 39.8631 75.6577
929 4 65.4175 42.2422 76.911
930 1 64.2369 43.4238 79.4533
931 4 68.0462 43.0893 76.2289
932 5 35.2418 44.7528 77.3461
933 1 35.5467 47.409 76.0068
934 1 35.4829 47.0892 79.0944
935 1 40.7828 46.2205 76.2063
936 4 37.8265 45.5477 76.6414
937 1 38.4558 48.2714 75.4396
938 4 40.1638 45.7472 78.9466
939 5 38.1337 47.7712 78.2928
940 4 37.6161 44.8398 79.1753
941 5 42.4388 44.2254 78.7169
942 1 42.9528 48.0917 75.7481
943 1 45.2285 45.4794 79.2986
944 2 42.1235 43.7842 75.9943
945 3 43.5519 45.8951 77.0641
946 1 42.5772 47.7057 78.7946
947 1 45.4244 48.1344 77.736
948 1 45.9702 46.0627 75.7306
949 1 49.7 44.1571 78.3659
950 2 47.6699 45.9501 77.8017
951 1 50.2206 46.2809 76.3724
952 1 48.0643 48.0702 75.1574
953 1 50.4269 47.0099 79.4618
954 3 52.1565 44.215 77.2924
955 1 54.5829 44.3357 78.7659
956 4 55.4305 45.0122 76.2284
957 2 52.5724 46.4758 77.8203
958 1 53.0943 47.6711 75.4787
959 1 55.1905 47.2331 78.0865
960 1 56.1535 47.5036 75.1746
961 2 58.0957 45.5286 76.0908
962 5 58.0219 47.5695 77.7563
963 1 59.998 45.3672 78.0863
964 1 60.6727 45.3541 74.8125
965 3 59.0281 47.7978 75.4143
966 1 62.8058 44.4795 76.8854
967 2 64.9392 44.3536 75.3032
968 1 63.8235 46.9479 78.0687
969 1 61.4098 47.8158 76.5141
970 2 61.1592 47.5607 79.1378
971 2 65.6476 46.5368 76.0226
972 1 67.5765 48.162 75.2143
973 5 66.753 47.7819 78.1078
974 1 66.3271 44.7516 77.8481
975 1 68.8299 46.0685 77.0161
976 2 33.9564 49.5583 75.1846
977 3 36.4041 49.4737 77.4026
978 2 32.5193 51.7869 74.9932
979 3 33.9687 48.9407 77.7862
980 1 34.5157 51.4812 77.0705
981 2 36.0459 52.43 79.0089
982 1 40.5408 49.2972 77.2807
983 1 37.6548 51.4521 76.2977
984 3 40.2866 52.2652 77.9061
985 1 40.433 51.5044 75.3425
986 1 38.4849 50.6385 79.0149
987 2 43.1318 50.4293 77.2122
988 1 42.5779 53.1552 76.9358
989 4 45.1116 52.8023 74.8471
990 4 45.202 52.4757 77.6611
991 1 46.3061 50.4578 76.1385
992 5 48.4398 48.5334 77.8747
993 3 50.9746 48.6614 77.0993
994 1 49.4703 50.7178 76.1574
995 4 50.3355 50.7377 78.767
996 2 48.046 52.9146 77.4093
997 3 50.8158 52.8298 74.8125
998 5 47.3176 50.906 78.9637
999 1 52.4592 50.6302 75.5489
1000 1 53.0063 49.3024 78.5133
1001 3 54.8097 49.3908 76.5897
1002 3 52.7914 51.8597 77.8229
1003 1 55.2478 51.9071 76.6621
1004 1 56.4378 49.952 78.9663
1005 1 59.6305 49.9072 78.09
1006 1 60.1015 50.2859 74.9407
1007 1 57.4325 50.0261 76.1654
1008 1 59.7286 52.9518 76.0978
1009 2 57.8576 52.21 78.0137
1010 1 60.4607 52.6719 79.0184