# LAMMPS data file written by OVITO Pro 3.7.7
1499 atoms
5 atom types
0.0 250.0 xlo xhi
0.0 90.51 ylo yhi
0.0 181.02 zlo zhi

Atoms  # atomic

1 3 55.7648 41.511 83.9825
2 1 58.6146 41.2489 84.1756
3 1 60.9222 42.3691 85.8468
4 4 61.867 40.9134 83.8168
5 1 63.8116 42.8701 85.1065
6 1 49.2081 43.9506 85.3688
7 3 50.3857 47.255 83.6113
8 1 48.2756 46.8807 85.4287
9 3 50.713 46.0949 85.7901
10 2 52.0666 44.0923 85.8696
11 1 51.2295 44.7665 83.3425
12 1 54.0149 43.6363 83.8645
13 1 53.6796 46.0517 81.9715
14 1 55.9118 45.9748 84.0677
15 1 53.0453 46.6845 84.7339
16 1 57.1544 43.6266 82.8847
17 3 56.2489 43.3526 85.549
18 1 59.0989 45.9216 84.0696
19 4 60.2721 43.3015 82.7991
20 3 57.567 47.2865 82.3166
21 4 59.0231 45.4709 81.2753
22 3 58.6407 43.6618 85.1115
23 5 61.5888 46.3352 82.3744
24 4 61.6532 46.986 85.1688
25 2 61.743 44.5595 84.5103
26 1 64.1854 45.9246 84.2704
27 1 66.7777 46.8771 85.3858
28 3 49.2968 49.4989 83.9594
29 1 48.8432 52.1416 84.6582
30 2 52.3794 48.6212 82.76
31 1 54.0173 49.6692 84.7829
32 1 51.2101 48.78 85.7139
33 1 55.2244 48.6414 82.2328
34 1 51.5443 51.2076 83.7559
35 1 53.9619 51.4128 82.1234
36 1 54.1283 52.6816 85.0582
37 1 57.9728 49.9024 81.6526
38 1 57.1019 48.6139 84.7242
39 1 59.9168 48.6724 83.3662
40 1 58.7904 51.0213 85.2039
41 3 56.3708 51.8941 80.9312
42 2 56.2231 51.0634 83.7017
43 1 58.2953 52.6027 82.7801
44 3 56.9691 53.1833 85.0944
45 3 59.9067 51.8608 80.8304
46 2 61.2604 49.6961 81.2558
47 1 61.4716 49.6661 85.7227
48 1 63.0949 48.773 83.1807
49 3 63.5534 51.3202 82.1432
50 3 65.542 48.9262 84.1714
51 1 61.1435 51.6553 83.3193
52 1 66.1261 51.3452 83.203
53 1 63.792 51.2251 84.9193
54 5 68.2403 49.3327 84.5046
55 1 68.4457 52.3453 84.7587
56 4 71.0002 50.2307 85.1725
57 4 50.4532 53.5526 82.4818
58 4 48.7862 55.1782 84.3169
59 4 50.1139 58.0573 84.4074
60 2 53.0504 54.269 83.1059
61 1 51.3754 54.0573 85.2487
62 1 55.6544 53.8338 82.6809
63 1 54.7617 56.655 82.8088
64 2 51.3009 56.0522 83.1906
65 1 52.9439 56.9057 85.2232
66 3 52.5843 58.2033 82.7958
67 2 55.3247 55.2321 85.1541
68 1 55.924 57.9033 85.3752
69 1 57.9424 55.6713 83.283
70 2 59.6257 53.7511 84.8249
71 1 60.5692 54.3822 81.98
72 2 57.8344 54.3983 80.806
73 1 59.2534 58.015 85.1
74 2 59.9543 57.2988 82.3394
75 1 61.2442 55.8888 84.4767
76 1 63.3628 53.8634 83.4448
77 2 65.6967 53.3875 85.0388
78 2 62.6314 56.38 82.1311
79 1 64.3066 57.073 84.3609
80 1 52.2801 59.9183 84.7843
81 3 54.6892 59.4263 83.6325
82 1 54.7775 61.3656 85.6086
83 1 57.1993 58.5237 82.7627
84 1 57.6488 60.5762 85.0987
85 2 59.5193 59.9847 82.9891
86 3 60.6105 60.397 85.2334
87 1 61.9856 58.7908 83.5798
88 2 63.9441 59.8499 85.5427
89 3 53.7839 35.5255 89.7134
90 1 55.9985 36.8516 88.758
91 1 51.4497 37.0092 90.3572
92 2 53.2437 37.6195 88.4088
93 1 58.8084 36.8481 90.0607
94 5 61.2616 35.2728 90.4043
95 1 63.9952 36.842 89.8718
96 3 61.6123 37.2678 88.6247
97 1 50.7539 42.0902 87.1427
98 3 49.8006 40.1349 89.227
99 2 48.2856 42.6675 88.5722
100 1 50.6644 42.5742 90.0245
101 1 52.1946 39.8773 90.516
102 2 52.1591 39.8731 87.8036
103 1 54.9594 39.689 88.5046
104 1 55.0976 41.1664 91.0149
105 2 53.2482 41.9253 89.0925
106 1 55.7929 42.8374 88.3207
107 1 53.7805 41.8365 86.3113
108 3 59.4464 40.2201 86.6201
109 1 57.7502 41.0668 89.6818
110 3 56.8031 38.706 90.5537
111 1 56.7221 40.6403 86.3415
112 3 57.7107 38.8113 88.1387
113 1 60.1584 39.4163 89.0776
114 4 58.4045 42.7315 87.3522
115 4 60.5562 42.1982 88.6925
116 2 64.9859 41.1638 90.2454
117 1 63.0053 39.727 89.2948
118 3 65.4675 38.9349 88.7578
119 2 62.4116 40.235 86.6862
120 1 65.3329 41.0527 87.1671
121 1 62.5052 42.5116 90.8881
122 1 63.2274 42.7811 88.0092
123 1 66.8295 38.0884 90.8055
124 1 67.575 40.6896 89.4592
125 2 67.6742 42.5183 86.8502
126 4 45.0492 46.5765 90.4599
127 4 46.8945 44.5329 87.1826
128 1 49.8229 44.9588 88.0595
129 1 46.0767 43.8008 90.1644
130 1 47.3287 46.9635 88.6674
131 3 49.648 47.615 87.5357
132 1 50.0872 47.4588 90.1351
133 1 48.7039 44.8925 90.8007
134 2 55.0254 47.6419 86.2954
135 5 54.3931 44.0956 90.4209
136 2 52.4616 44.0884 88.3744
137 1 51.8854 45.3488 90.7514
138 1 54.4481 44.9535 86.777
139 1 52.1984 46.8457 87.8648
140 4 54.6482 47.0538 88.9148
141 2 59.2694 47.7965 86.1971
142 1 57.4141 45.6594 86.6514
143 4 56.5861 45.5312 89.3227
144 1 60.3163 45.0721 86.8746
145 1 59.3127 47.0009 89.0029
146 2 58.7937 44.1682 89.5231
147 1 61.4102 45.0303 89.6229
148 2 64.0509 44.738 89.7367
149 2 65.6216 44.3613 86.4591
150 5 63.1971 45.4922 87.0818
151 2 61.5787 47.7664 87.7458
152 1 63.2847 47.4962 89.7732
153 1 65.6696 46.4497 88.3185
154 1 66.2224 43.3785 89.0194
155 1 69.386 43.1196 89.1337
156 1 68.2236 45.2615 87.4003
157 2 69.913 45.8364 89.3417
158 2 67.7312 45.0055 90.573
159 1 67.9142 47.5561 89.8854
160 1 69.7461 47.7479 86.6484
161 1 72.0571 44.3419 89.9774
162 4 72.0027 47.1154 88.4173
163 4 43.6624 48.8022 90.3646
164 4 43.629 51.5884 90.0918
165 1 46.0291 50.0991 88.9679
166 1 48.3203 49.6886 86.5024
167 2 48.5531 49.41 89.1119
168 1 46.0892 53.2023 88.6957
169 2 46.645 51.8037 86.4388
170 4 48.8969 51.8536 88.6776
171 2 50.289 52.9302 90.8415
172 2 52.6889 48.5595 90.2893
173 2 51.0014 49.4942 88.5187
174 1 53.6466 49.6669 87.7912
175 1 55.5705 49.4496 90.3737
176 1 52.4638 51.4059 90.0122
177 1 50.984 51.4831 86.7408
178 3 53.3314 52.4249 87.5754
179 3 55.0091 51.754 89.1564
180 1 56.9789 48.4884 87.9255
181 3 57.343 51.167 89.0627
182 1 58.5703 49.4122 90.7214
183 1 59.5485 49.9462 87.8938
184 1 58.7612 52.9564 87.6159
185 1 56.1189 50.9927 86.6289
186 4 58.7827 52.4623 90.8772
187 2 60.7188 51.84 89.24
188 3 61.1729 49.2955 89.9328
189 1 62.8855 50.5271 88.2865
190 1 64.129 48.2556 86.3825
191 2 65.2276 49.3453 88.5911
192 3 65.7545 48.81 90.8098
193 1 61.5508 52.6062 86.4088
194 3 62.5 52.3564 90.7382
195 1 64.988 52.1123 89.7588
196 2 64.5685 52.5352 87.1483
197 1 66.2565 50.5434 86.3009
198 1 70.9675 52.9996 86.5912
199 2 69.9273 49.0367 89.0236
200 2 67.3522 48.4737 87.4726
201 5 69.1009 50.619 87.0485
202 1 67.5072 50.5374 89.4878
203 1 67.306 53.0516 87.4431
204 1 69.7643 52.532 89.2379
205 1 73.3896 48.8704 90.2441
206 1 71.9552 50.5185 88.073
207 1 73.4985 51.9792 90.3274
208 2 44.7016 53.6405 91.0191
209 1 45.651 56.0218 89.653
210 3 45.161 58.1998 90.9909
211 5 48.4553 53.9102 86.8853
212 1 48.4268 54.754 89.901
213 4 50.0678 56.233 86.4787
214 2 47.488 56.2685 87.6919
215 1 49.6007 57.5428 89.0541
216 1 51.0711 53.9515 88.3571
217 1 53.7512 54.275 89.7886
218 2 53.4745 54.7972 86.858
219 1 55.8579 53.7932 87.5729
220 1 52.3393 56.709 88.3049
221 1 53.5108 57.2296 90.9587
222 5 51.1488 55.4878 90.824
223 1 55.3833 56.7176 88.2084
224 1 57.9342 55.5174 86.15
225 4 56.5386 53.6377 90.4245
226 5 60.7149 55.2429 87.2212
227 1 60.7943 54.454 90.0094
228 1 58.1844 55.6483 89.0931
229 2 57.6774 57.9042 87.3298
230 2 56.28 56.6401 90.793
231 3 59.9445 57.4738 88.0727
232 1 60.3121 57.3124 90.7135
233 1 62.0268 58.1405 86.4968
234 2 62.9015 53.6617 88.6079
235 1 63.5461 54.9357 86.2824
236 1 65.4916 55.1256 88.655
237 1 62.7437 56.6422 89.0213
238 3 64.6351 57.2704 87.1227
239 2 64.866 57.613 90.4537
240 1 66.6262 55.7828 85.938
241 2 67.2163 53.5486 90.1463
242 3 69.0101 54.6918 85.9935
243 1 66.9605 57.8161 88.754
244 3 66.669 55.9605 90.9963
245 1 68.8171 55.4437 88.6377
246 2 68.8195 57.3959 86.6246
247 1 70.6327 57.9702 88.9213
248 1 71.1885 56.0012 86.7835
249 2 68.8127 57.3394 90.744
250 1 71.8934 54.681 89.3225
251 1 46.954 59.0061 89.0046
252 2 48.4069 58.41 86.5793
253 1 49.5447 60.557 87.8226
254 2 48.238 62.0202 89.6722
255 2 49.0774 59.8221 90.4897
256 2 51.1323 58.6441 86.8595
257 1 53.863 59.1113 87.2789
258 1 51.9047 59.7025 89.455
259 1 55.0472 59.7639 90.274
260 3 52.1561 61.2291 87.0912
261 1 51.3349 62.7584 89.1835
262 1 54.3016 62.1169 88.567
263 1 59.5914 62.7294 86.3638
264 1 57.7955 58.6752 89.8469
265 2 56.3641 59.9543 87.4921
266 1 57.3875 61.5863 89.299
267 2 56.8887 62.6898 86.929
268 1 59.3635 60.0253 87.5826
269 2 60.0067 62.2174 88.9696
270 1 60.0037 60.516 90.9333
271 3 60.961 63.1447 91.0222
272 1 66.0264 61.4627 87.2205
273 2 61.5288 59.2064 89.0453
274 1 64.2341 59.4798 88.4776
275 2 62.3533 61.4033 89.9429
276 1 62.1985 61.3114 87.1816
277 3 64.1213 62.5114 88.6945
278 1 64.8323 60.974 90.9433
279 1 66.473 58.8385 85.9248
280 1 66.4575 63.1958 89.8163
281 2 66.9262 60.4052 89.5536
282 1 69.3683 60.1838 90.6756
283 1 68.7591 59.9915 87.6521
284 3 53.6654 64.3026 90.4988
285 1 56.1503 64.4173 89.1181
286 3 58.84 64.3389 88.4667
287 1 60.3704 65.6509 90.4679
288 1 61.818 64.0172 88.4901
289 1 63.6029 63.9388 91.0067
290 4 49.6501 36.0058 95.6044
291 2 50.175 36.1116 92.8752
292 1 52.8572 35.1811 92.1993
293 1 52.4321 35.1904 95.1377
294 1 55.2967 34.3314 96.0695
295 1 56.005 35.3634 91.2964
296 4 54.9936 33.5573 93.3477
297 5 54.8651 36.5484 93.8085
298 4 58.7644 34.3743 91.7048
299 4 57.5646 34.9026 94.227
300 3 57.4775 37.0995 92.5401
301 4 60.3274 33.6986 95.7793
302 1 60.0349 36.584 93.2073
303 4 56.7783 37.4727 95.4573
304 4 61.3261 33.8506 93.2207
305 1 62.9258 36.1396 92.5669
306 1 62.0691 36.1804 95.6191
307 1 64.1113 34.3068 94.5068
308 3 64.4264 37.2467 94.4697
309 3 65.592 36.2358 92.4661
310 1 66.6219 35.5343 94.9959
311 4 69.2227 36.6642 95.6014
312 1 45.2109 41.797 92.4168
313 1 45.387 40.7521 95.3056
314 1 48.0162 41.3958 91.1034
315 1 49.2347 38.5162 91.4369
316 4 46.8038 39.255 93.0854
317 1 48.1103 41.6271 94.3705
318 4 49.1636 38.5396 94.4997
319 1 50.5424 40.646 92.8653
320 1 54.3223 37.8965 91.1925
321 1 52.0991 37.9238 93.4537
322 2 53.4106 40.2688 92.979
323 4 51.3691 40.2468 95.554
324 1 54.2734 39.3161 95.2731
325 1 52.5954 42.7277 92.2111
326 4 53.4693 42.0051 95.926
327 1 55.3078 42.3177 93.7535
328 2 59.8131 41.9214 91.1161
329 1 56.228 39.3206 93.1278
330 2 57.864 41.3902 92.8082
331 1 56.7939 40.8442 95.9706
332 4 58.8561 38.933 94.6511
333 1 59.1836 39.2134 91.8549
334 1 60.4935 41.3882 93.6705
335 3 61.4867 37.8401 91.0837
336 3 61.7264 40.1373 91.6177
337 1 62.0567 38.8425 94.0183
338 1 62.6166 41.3066 96.0382
339 1 64.2421 38.8063 91.9949
340 2 64.8363 39.7474 94.662
341 3 63.5857 41.1225 93.0372
342 1 65.2213 42.5191 95.0104
343 5 70.7616 41.7442 91.2584
344 3 67.8467 42.6837 91.304
345 5 67.2005 38.0895 93.6308
346 1 66.4293 40.7479 92.5416
347 2 68.9093 39.7549 91.8207
348 1 69.9914 39.1541 94.3614
349 1 67.5454 40.5316 95.352
350 5 69.0472 41.9041 93.458
351 2 72.6417 39.5746 95.311
352 3 71.494 41.368 93.906
353 1 73.4318 42.1955 95.5361
354 1 44.3981 44.7587 92.6959
355 1 43.4347 43.1705 95.4042
356 1 42.907 46.1433 94.972
357 2 42.4403 47.461 92.578
358 1 44.9736 47.9928 93.2392
359 1 48.5766 44.7824 94.3516
360 2 45.8864 43.3272 94.4851
361 3 47.2169 43.518 92.5243
362 3 46.8162 45.9493 92.3958
363 1 45.9794 45.907 95.1071
364 3 49.7403 43.155 92.5117
365 3 47.5965 47.6489 94.0256
366 3 49.2889 46.7822 92.5784
367 1 49.9004 47.243 95.2998
368 4 53.6731 44.8044 93.7139
369 1 51.0896 43.0513 94.8792
370 3 51.0282 45.1969 93.2733
371 1 54.3632 47.6651 94.5416
372 1 51.8115 47.7526 92.8014
373 4 52.3608 45.9249 95.6292
374 1 54.5757 46.7448 91.674
375 1 58.1482 43.3714 94.6407
376 1 57.0583 43.6011 91.5464
377 1 57.8006 46.6188 91.6369
378 4 56.2523 45.4847 93.8222
379 1 59.9817 44.3262 92.2831
380 2 58.8161 46.1753 94.1408
381 2 60.6312 43.521 95.4188
382 1 59.966 48.0376 95.9224
383 1 60.8236 47.3646 91.7188
384 1 62.6453 43.4131 93.7036
385 1 61.4626 46.0368 94.3286
386 1 65.1732 43.3705 91.9007
387 3 62.8509 45.3324 91.8772
388 1 64.6402 45.6137 94.097
389 3 63.3189 47.575 92.7254
390 1 63.3301 47.8645 95.5851
391 1 65.5418 46.2996 91.4238
392 2 66.0854 47.2785 95.7201
393 1 67.3928 44.2068 93.718
394 1 69.9771 44.5696 92.0277
395 1 70.5252 43.8653 94.9028
396 1 68.5576 46.0162 95.9511
397 1 68.1142 46.9595 93.047
398 1 70.5776 47.5244 91.2841
399 1 71.0399 46.8919 94.2402
400 5 72.7081 43.3943 92.7739
401 1 73.3039 45.1193 95.149
402 1 73.1802 46.2231 92.0227
403 1 74.6045 47.7192 94.2419
404 1 42.9076 50.3281 92.7728
405 5 44.6804 50.1964 95.0802
406 3 42.4291 48.8345 95.2049
407 1 42.135 51.5935 95.3491
408 3 45.4069 50.2559 91.7235
409 1 45.2346 52.3886 93.4042
410 3 44.4915 52.7771 95.9835
411 1 50.0563 50.1957 91.1449
412 1 47.3679 51.9435 91.1308
413 1 47.4242 48.4566 91.3918
414 3 49.6292 49.1328 93.4565
415 1 47.2778 50.2456 93.8884
416 1 49.7354 50.3831 95.8547
417 4 49.423 52.1673 93.1495
418 4 47.7164 53.1365 94.7747
419 2 52.0587 48.8433 95.433
420 3 53.9171 49.3549 92.3752
421 1 51.9999 50.8536 93.3619
422 5 54.7652 50.4791 94.5612
423 1 54.0168 53.2221 94.5788
424 3 52.5139 51.1793 96.0255
425 1 54.7473 51.938 91.9178
426 3 56.3405 48.5206 92.8621
427 1 57.0543 48.8187 95.4959
428 1 57.3677 50.957 92.9834
429 2 58.9679 48.6131 93.37
430 1 59.527 50.8186 95.087
431 1 60.7285 50.8948 92.252
432 2 56.8158 51.6636 95.7119
433 2 61.5443 49.0081 93.905
434 1 63.4128 49.9181 91.4551
435 1 65.6445 48.6701 93.4652
436 2 63.6731 50.3094 94.3397
437 2 61.861 52.1872 94.6059
438 4 63.8276 52.3594 92.9521
439 2 64.3929 52.56 95.7404
440 3 65.9291 50.9698 91.9102
441 3 68.0143 49.3286 91.9265
442 3 67.9019 48.7734 95.1109
443 1 69.9474 49.7358 93.7934
444 1 70.8784 50.4494 91.0479
445 1 66.6281 51.2602 94.439
446 1 68.4085 51.9116 92.0543
447 3 69.0091 51.5348 95.5527
448 4 70.3214 52.8105 93.7485
449 2 71.274 53.1106 91.4671
450 2 72.5205 48.8525 92.7323
451 3 72.3115 49.1608 95.0555
452 1 75.1059 50.1287 92.5236
453 1 71.613 51.4712 95.9794
454 1 72.7416 51.5076 93.2738
455 1 74.6165 50.33 95.7823
456 1 75.1438 52.9475 94.3307
457 2 42.3801 54.4686 95.5551
458 1 43.7314 56.0813 92.034
459 1 42.6013 53.455 92.9819
460 2 44.6827 54.8472 94.3903
461 1 43.0927 57.0574 94.7894
462 1 45.7985 57.689 93.6518
463 1 46.6026 54.8913 92.3978
464 4 49.3414 55.0356 92.9862
465 4 47.0167 55.6492 95.3206
466 1 48.8978 57.7925 94.5075
467 1 47.8224 57.5238 91.5061
468 2 49.5111 55.3922 95.7423
469 1 50.7062 58.0974 92.0195
470 1 51.0892 53.2656 95.1138
471 2 52.3908 53.3845 92.174
472 1 52.0254 55.6551 93.6543
473 2 53.0247 58.0865 93.6723
474 1 51.547 57.5406 95.9942
475 1 54.9496 55.1355 92.5227
476 1 54.56 56.4624 95.1978
477 1 55.585 58.2294 92.9965
478 4 56.8894 53.6086 93.9508
479 4 59.4398 53.657 94.7563
480 2 57.2704 56.2886 94.4856
481 1 58.4858 55.1332 92.1294
482 4 58.2387 57.845 92.579
483 1 60.4585 56.3447 94.235
484 1 63.876 54.7146 91.0839
485 4 61.1618 53.8028 92.6687
486 1 63.2194 54.7647 94.474
487 1 66.1562 53.8032 92.668
488 2 65.8562 54.9151 95.1093
489 2 62.2606 56.4067 92.303
490 1 64.8651 56.8658 93.1203
491 3 64.4455 57.0802 95.804
492 2 68.1055 53.7718 94.5727
493 1 69.2053 54.7616 91.4941
494 1 66.8431 58.1207 95.5357
495 1 67.7934 56.2596 93.532
496 1 69.9091 58.2895 93.0886
497 3 69.3771 56.8044 95.6338
498 1 70.9862 55.5349 93.7558
499 2 72.619 53.753 94.9574
500 1 73.4271 54.5242 92.1634
501 2 71.2728 56.5502 91.1988
502 1 71.9192 57.5428 95.7101
503 1 73.1743 57.5528 92.9684
504 2 74.1818 55.6431 94.5507
505 1 74.8747 57.8756 96.019
506 2 43.6841 59.2356 92.7586
507 1 44.3483 59.9428 95.3296
508 1 48.2888 62.7236 92.2486
509 2 47.0701 59.8579 94.69
510 1 46.4419 60.3397 91.9012
511 3 48.8418 59.9902 92.9705
512 1 46.1032 62.3599 94.232
513 1 48.9813 61.8122 95.0728
514 1 50.7913 61.3918 91.7277
515 2 52.8747 59.7126 91.9387
516 3 53.25 62.0061 91.1065
517 2 55.6473 62.5241 91.2015
518 1 53.9543 59.4627 95.8936
519 1 51.2809 60.0541 94.3089
520 2 51.214 62.8364 93.9351
521 3 52.9441 61.9588 95.3885
522 1 54.5494 61.0418 93.3731
523 2 55.4024 62.4396 95.6174
524 1 58.8909 58.8073 95.1767
525 2 60.4972 58.9018 92.945
526 3 56.4231 59.8595 94.9682
527 1 57.4747 60.6538 92.4857
528 2 56.6216 63.0183 93.5083
529 1 58.2242 61.7581 95.4433
530 2 59.5789 62.289 93.0169
531 3 60.6396 60.6999 94.5161
532 1 60.8733 63.3419 95.1999
533 1 62.7992 58.9334 91.5356
534 1 62.3914 58.5764 94.8254
535 1 62.3576 61.6934 92.7532
536 2 63.162 61.4242 95.2568
537 1 64.869 59.8314 93.8054
538 1 65.8474 62.084 95.581
539 3 65.0459 62.4495 93.0191
540 1 66.9378 58.8431 91.891
541 2 67.6438 60.2266 94.191
542 1 69.7847 59.6133 95.7362
543 1 67.5892 62.1107 92.3462
544 1 68.8138 62.5458 95.2183
545 3 70.0126 60.9975 93.2448
546 3 71.7601 59.1403 91.309
547 3 72.0726 59.7546 94.0783
548 3 71.353 61.8599 95.3842
549 1 49.1413 64.7508 94.1821
550 1 55.9018 65.2488 91.9863
551 1 53.7131 63.7702 93.3606
552 2 53.5695 64.3469 96.0433
553 1 51.0859 64.3961 91.722
554 3 51.6983 65.3268 94.3836
555 2 53.6894 66.6179 94.9518
556 1 53.1681 66.4327 92.2931
557 3 55.4747 67.4678 93.4246
558 1 56.0227 65.2113 95.1207
559 1 58.3217 63.6052 91.0462
560 1 57.8887 67.6205 94.5144
561 1 58.6532 64.8362 93.6288
562 2 58.1452 66.7854 91.714
563 2 59.8864 66.1721 95.5753
564 4 60.6621 67.3355 93.25
565 4 61.4907 64.7905 92.9462
566 1 63.8841 64.1857 94.5039
567 1 62.5259 66.4907 95.7452
568 5 63.6115 66.5461 92.6352
569 1 65.3961 66.7982 94.9756
570 1 66.1256 64.8618 92.4977
571 2 66.884 64.491 95.0975
572 4 48.872 37.0068 98.802
573 4 51.4496 37.673 96.4728
574 5 51.9118 35.5468 98.4552
575 1 53.5107 34.7563 101.118
576 1 54.1801 36.8846 96.7956
577 3 54.5034 34.8552 98.6179
578 1 54.0653 37.4365 99.6308
579 4 57.8157 33.4887 97.308
580 4 59.1221 36.2353 96.1684
581 4 60.2573 32.6992 98.6298
582 1 56.4923 33.9447 100.222
583 2 58.9365 34.8847 99.3212
584 1 56.8521 36.1408 98.0798
585 2 60.8802 35.1532 97.944
586 1 61.0722 35.9953 101.126
587 1 59.7138 37.4633 98.8745
588 1 62.7207 36.8585 98.737
589 1 63.0661 33.7681 97.2399
590 1 62.425 33.718 100.179
591 1 65.0924 34.7869 99.2905
592 2 64.0091 36.6639 101.093
593 2 64.628 36.044 96.8379
594 1 67.5741 35.9383 97.9866
595 3 68.8796 37.5122 99.8952
596 1 44.4783 40.831 100.052
597 3 44.7457 39.5372 97.6919
598 2 44.7986 42.1835 97.5737
599 4 49.4956 39.4155 97.2291
600 3 49.3587 42.0738 96.7079
601 4 46.9919 38.2877 96.4806
602 1 46.5299 38.6445 99.7034
603 2 47.1698 41.2614 100.533
604 1 47.1363 40.8404 97.8176
605 4 49.2673 40.0136 99.832
606 4 51.2672 38.2476 99.3405
607 1 53.2034 40.2816 100.577
608 4 53.0351 39.609 97.7886
609 2 55.6244 39.1907 97.9488
610 3 55.9482 40.5151 100.418
611 1 51.4483 41.8746 98.411
612 1 55.0738 41.9181 98.3362
613 5 59.6148 40.9384 96.3813
614 2 60.7355 38.4321 96.4322
615 1 57.0489 38.2336 100.015
616 1 58.4543 40.7791 99.1528
617 2 59.52 38.9034 101.218
618 3 58.0622 38.7971 97.3288
619 4 61.0656 41.401 100.971
620 2 60.7817 42.722 97.7482
621 1 61.4123 39.9016 98.5803
622 5 63.4818 38.6262 96.7001
623 3 63.9278 39.8917 99.5925
624 1 65.5849 37.8878 98.9792
625 1 65.4807 40.6564 97.5024
626 1 63.0487 42.4739 99.0556
627 1 65.722 42.0114 100.164
628 4 66.213 38.051 96.1811
629 1 70.4098 41.3086 96.5255
630 1 71.1531 38.2854 97.1716
631 1 68.3948 38.943 97.7009
632 2 67.3744 39.6566 100.164
633 1 70.6423 39.6454 99.7828
634 3 69.1722 41.1779 101.19
635 1 68.2578 41.8023 98.6086
636 1 71.0193 42.8265 99.4656
637 5 72.8369 40.6529 97.9642
638 1 73.1474 41.2308 100.857
639 2 74.0373 42.9569 98.6544
640 2 44.621 47.9394 96.2461
641 1 44.4505 45.1428 97.4897
642 1 42.6063 43.2284 98.6894
643 1 45.6431 43.593 99.7912
644 1 42.3409 47.4429 97.7382
645 1 45.3342 47.6274 98.8404
646 1 43.2133 45.9329 100.362
647 1 47.0435 43.5511 96.7585
648 2 46.6236 45.8646 100.611
649 1 48.6866 43.1343 99.2181
650 1 50.0895 44.7624 97.1378
651 1 49.3278 45.7282 100.76
652 4 47.5678 45.8897 98.1982
653 4 49.7693 47.5673 98.2106
654 4 55.5202 43.9597 96.2436
655 2 51.3151 44.3886 99.5875
656 4 53.0304 44.1792 97.5551
657 1 53.5507 43.2374 100.671
658 2 54.6948 45.1592 99.208
659 4 52.4325 47.0627 98.1938
660 1 52.6815 46.3794 100.945
661 4 55.0482 46.5429 97.0875
662 1 55.554 48.0094 99.6079
663 4 57.4549 45.9374 96.2567
664 1 57.3624 45.6081 99.1783
665 1 56.7156 43.0738 100.572
666 5 57.9537 43.1691 97.5917
667 1 59.7983 43.7401 99.9695
668 1 60.0594 45.3791 97.2527
669 2 58.052 47.922 97.9563
670 1 59.9211 46.8732 99.9471
671 3 66.0037 44.9111 96.1763
672 2 62.1848 45.1529 99.1176
673 1 65.019 44.9748 100.455
674 1 63.0457 44.479 96.5802
675 3 65.1877 43.2926 97.7437
676 5 61.8435 47.7761 98.0632
677 1 62.9227 47.1903 100.802
678 1 64.6005 46.5985 98.0172
679 2 67.7172 43.0589 96.2096
680 1 67.2286 44.7364 98.5058
681 3 69.6254 43.9218 97.4574
682 1 68.3417 43.7515 101.145
683 2 71.15 45.0955 101.17
684 1 69.8258 46.0109 99.0822
685 3 71.1455 45.9155 96.7724
686 1 67.3794 47.7783 98.072
687 1 67.7516 46.8549 101.036
688 1 73.229 47.6155 96.9116
689 3 72.0154 43.5777 97.1387
690 1 72.8433 45.3922 98.8673
691 4 75.656 46.4275 99.6234
692 2 71.602 47.8818 99.0522
693 4 75.2446 45.1774 97.1894
694 1 40.8642 48.1265 100.246
695 2 43.3953 48.926 100.177
696 1 43.7589 50.2356 97.7936
697 2 41.062 49.9431 97.471
698 1 41.477 51.0288 100.033
699 1 42.4907 52.9934 97.9158
700 3 43.7202 52.2584 100.383
701 2 45.0711 52.5793 98.4443
702 1 47.3413 48.3354 96.6046
703 2 47.7755 48.2457 99.8896
704 1 45.8834 50.2949 99.9988
705 2 48.6565 50.2614 98.6107
706 1 50.437 48.5287 100.893
707 1 46.6926 51.12 96.9071
708 1 47.4946 52.8308 99.6055
709 1 49.2376 52.9855 97.3759
710 3 50.2597 51.971 99.7742
711 2 53.1358 49.0031 100.555
712 1 51.4318 49.9764 98.3626
713 1 54.1861 49.3141 97.2122
714 4 52.0693 52.8033 97.9995
715 1 53.9091 51.2761 99.67
716 4 54.6273 52.2806 97.1832
717 3 58.3047 49.1665 100.074
718 1 56.7954 50.4647 98.2167
719 4 59.7399 50.0563 98.0144
720 1 60.9112 49.6759 100.677
721 4 56.3509 53.1693 99.4747
722 5 58.7562 51.7202 100.185
723 4 58.7553 52.6221 97.2971
724 1 62.2282 50.5703 96.7254
725 4 63.5574 49.6052 99.2799
726 1 65.2539 49.8014 96.713
727 3 65.5808 48.1717 100.073
728 2 61.2262 52.1347 99.1847
729 1 64.1538 52.2515 98.574
730 1 69.3008 49.2089 99.8818
731 1 70.1756 48.6651 96.795
732 3 67.8521 50.1309 97.0637
733 1 66.9317 52.673 96.9909
734 1 66.5432 50.6431 99.37
735 1 69.6595 51.5705 98.2635
736 1 68.3116 52.3135 100.916
737 2 70.9338 51.8223 100.876
738 2 75.8327 48.2673 97.2915
739 2 71.8354 49.5011 100.843
740 3 74.1228 48.4429 99.3007
741 1 72.5921 50.3339 98.3656
742 1 75.5767 50.6704 98.8495
743 3 73.8569 52.6224 96.9426
744 5 73.5747 51.3785 100.879
745 3 76.3052 52.2986 96.8317
746 1 41.7616 54.1505 100.515
747 3 42.0235 55.6275 98.0271
748 1 44.5381 55.4022 97.0753
749 1 43.1477 58.0754 97.5093
750 1 42.7909 57.0015 100.255
751 2 45.3369 57.3318 99.1758
752 1 44.8091 54.744 99.9639
753 3 46.6087 53.7357 96.9696
754 1 46.276 58.0387 96.661
755 1 47.4311 55.6566 98.4909
756 3 49.6327 54.4215 100.027
757 2 49.0803 57.397 97.3855
758 1 49.207 57.0935 100.315
759 3 46.7791 57.6514 101.102
760 1 50.8927 55.4148 98.0093
761 2 53.0425 54.7471 96.5656
762 3 52.1147 53.3271 100.511
763 3 54.0309 54.3223 99.1435
764 1 52.1754 55.9192 100.539
765 3 53.3775 58.2503 100.656
766 1 53.8711 56.8289 98.1326
767 1 55.1935 55.9901 101.186
768 1 56.232 54.4838 96.6796
769 1 58.9339 54.493 99.3805
770 1 56.6222 57.8249 96.8538
771 2 56.5234 55.8703 98.9089
772 1 58.6314 57.522 99.378
773 1 58.9664 55.8439 96.7181
774 1 60.9309 56.6813 101.153
775 3 60.9729 55.932 98.563
776 5 60.7472 58.155 97.2712
777 2 62.2315 56.2591 96.4605
778 1 62.6746 54.4639 99.9256
779 1 61.6014 53.6712 96.961
780 1 64.4991 54.9828 97.4822
781 1 63.1457 57.6188 98.9278
782 1 65.3259 55.8507 100.353
783 2 65.8692 57.3885 98.0015
784 1 70.1359 54.0425 96.3368
785 1 67.5444 55.5062 97.0927
786 3 66.6044 53.8079 99.322
787 3 69.0187 54.0361 98.8693
788 1 70.4381 54.6321 101.106
789 2 68.4904 57.9684 97.7496
790 1 68.1893 56.4131 100.007
791 1 70.5636 56.1883 98.1541
792 5 71.0447 57.5358 100.506
793 1 76.0698 54.9281 96.4302
794 1 72.0107 53.3075 98.9182
795 1 75.0291 53.6843 99.1585
796 1 73.2579 55.2481 97.1008
797 3 73.0536 55.6045 100.068
798 1 73.0896 57.8291 98.5552
799 1 75.722 56.6989 98.8685
800 2 44.8446 59.8283 98.5067
801 1 44.5705 59.2197 101.166
802 1 46.4408 61.3574 96.9996
803 2 48.8805 59.642 96.6092
804 1 47.5736 59.2475 99.0185
805 1 46.1096 61.6591 100.208
806 4 48.805 62.1062 98.1958
807 1 48.7362 62.8891 101.05
808 2 49.8557 60.4549 99.9347
809 1 51.3018 58.4358 98.8514
810 2 53.7211 59.6898 98.4886
811 5 55.7425 58.44 99.5284
812 1 51.269 60.7642 97.1872
813 1 52.5519 60.9289 100.532
814 1 53.5846 62.4733 97.9713
815 3 51.1019 62.6567 99.1313
816 2 55.1635 61.3699 100.045
817 3 58.651 59.696 97.7491
818 1 60.8101 59.7483 99.7673
819 1 57.6481 60.2979 100.37
820 1 56.1876 60.74 97.5998
821 1 57.1057 63.1412 100.785
822 3 59.8074 63.4912 100.936
823 1 58.9136 62.2865 98.4701
824 3 63.3546 59.3826 101.075
825 1 64.3863 59.6081 96.9887
826 1 65.8693 59.1608 99.9272
827 1 61.1927 60.9047 97.0458
828 3 61.3821 62.6717 99.2081
829 1 63.0782 63.2706 97.2415
830 2 63.2032 60.8966 99.0884
831 1 65.454 62.2078 98.5826
832 1 68.9573 59.3945 100.018
833 3 70.785 58.9441 98.0914
834 1 67.5066 60.4246 97.4895
835 2 67.7789 61.9135 100.106
836 1 70.3092 61.601 98.0754
837 4 72.6164 60.3923 99.8647
838 3 75.1406 59.4361 98.3906
839 1 72.9083 60.2184 96.756
840 2 47.799 63.8772 96.4317
841 4 46.8639 64.2019 98.9526
842 4 48.9937 66.3879 96.5697
843 1 49.7278 64.9889 98.9586
844 2 50.2768 67.7169 98.8547
845 1 50.9538 63.7264 96.5302
846 1 55.4123 68.2489 96.1618
847 3 54.5951 63.7964 100.02
848 2 52.4641 64.8446 99.0441
849 1 51.8619 66.5617 96.9546
850 1 53.1097 67.9699 99.4581
851 1 54.626 66.0063 97.925
852 2 51.2019 66.5362 100.835
853 3 58.3822 64.2271 96.2516
854 1 56.3654 63.7198 97.8876
855 3 58.5269 64.9402 99.4018
856 1 56.2734 68.6788 99.018
857 1 56.3611 66.0834 100.339
858 1 57.7415 66.5886 97.3948
859 3 58.8375 67.4025 99.8108
860 1 60.5614 67.7706 97.7713
861 1 60.5185 64.764 97.7539
862 1 61.0008 65.7968 100.432
863 1 63.4658 64.0841 100.229
864 1 62.6325 68.2792 99.8042
865 2 62.8682 65.9292 98.3846
866 3 64.3685 67.7078 97.5128
867 1 65.1453 66.6232 100.055
868 1 65.3477 65.086 97.4619
869 1 67.9864 63.6461 97.9026
870 4 67.9661 65.888 99.9253
871 4 67.7342 66.4467 96.8997
872 4 70.2665 64.1287 99.6399
873 2 66.183 64.0044 100.547
874 1 50.6732 36.1398 101.26
875 1 52.8602 34.8709 103.997
876 3 55.6493 36.3019 101.36
877 2 52.8846 37.279 102.054
878 3 54.3774 35.3473 106.18
879 1 50.981 37.0568 104.194
880 1 54.9207 36.8797 103.835
881 2 53.3699 37.653 105.824
882 1 58.2003 35.9807 101.624
883 2 59.6118 33.4808 101.311
884 1 56.044 34.2628 103.242
885 3 59.1519 37.0488 106.023
886 2 57.5707 36.3755 104.251
887 1 59.1458 34.2996 103.915
888 1 60.0831 37.4148 103.578
889 3 61.7277 34.1746 102.995
890 1 61.2396 35.3836 105.651
891 4 62.8077 36.5832 103.551
892 1 64.4426 34.4069 102.327
893 1 65.5753 36.7206 104.069
894 1 66.8746 36.3229 101.305
895 1 68.1031 37.4335 105.389
896 2 45.657 40.961 104.874
897 1 45.6875 42.4079 102.539
898 1 50.538 42.1626 101.368
899 3 45.9861 39.6626 102.258
900 1 48.3217 38.0044 102.022
901 1 47.0859 38.657 104.651
902 3 49.5933 39.1746 104.305
903 1 48.2652 41.0008 103.016
904 1 48.4324 40.9774 106.072
905 5 50.8581 39.2497 101.989
906 2 50.8449 41.2477 104.046
907 2 50.9413 42.3048 106.318
908 1 53.0562 39.3569 103.712
909 1 51.4359 39.6397 106.164
910 3 52.7615 41.8396 102.77
911 1 53.6379 41.6389 105.495
912 3 54.9313 38.7173 101.828
913 5 55.571 39.3386 105.192
914 1 55.3723 41.2444 102.901
915 1 57.27 38.6263 102.913
916 1 58.3315 41.2567 102.307
917 2 56.6433 41.7146 105.37
918 1 58.499 39.5875 105.369
919 1 60.8925 40.353 103.65
920 3 59.0845 42.2494 105.009
921 1 62.2668 38.7345 101.393
922 1 65.353 38.9197 101.814
923 5 61.2898 38.5692 106.094
924 2 63.6741 41.1096 101.977
925 4 61.2296 41.4972 106.364
926 1 63.6965 39.2496 104.323
927 2 65.8166 38.6423 106.332
928 1 65.4635 41.4748 105.264
929 4 62.7805 42.4507 104.178
930 3 66.6413 39.2556 104.169
931 1 66.9565 41.2829 102.615
932 1 68.6625 38.6154 102.47
933 1 68.232 40.5785 106.041
934 3 70.1712 38.9558 104.989
935 3 69.3341 40.9752 103.684
936 1 70.9274 42.7516 102.452
937 1 71.1799 41.3916 105.66
938 1 71.5 39.8178 102.812
939 2 73.1342 42.4826 103.931
940 1 42.9777 43.0011 101.609
941 1 45.3325 47.7275 101.975
942 1 44.3079 43.708 104.818
943 3 44.7967 44.9773 102.289
944 1 42.2377 45.2392 103.377
945 1 42.3005 47.3063 105.626
946 1 42.4879 48.0258 102.739
947 2 44.626 46.513 104.382
948 2 48.0505 43.4806 101.761
949 3 47.0834 43.0638 104.73
950 1 49.5891 43.6368 104.096
951 1 47.2178 45.4714 103.27
952 1 46.4674 45.3772 106.119
953 2 48.9773 46.4825 105.913
954 3 48.0615 47.9411 102.298
955 1 47.002 48.0223 104.873
956 1 50.1863 46.529 103.484
957 1 55.4607 45.507 101.777
958 1 51.3086 45.0673 106.288
959 2 51.5781 44.41 102.299
960 3 52.2524 43.5227 104.458
961 1 53.2089 46.0156 104.01
962 3 54.3509 43.6486 103.231
963 1 55.0409 44.3103 105.698
964 1 51.4731 47.9653 106.003
965 2 55.9511 46.5204 104.314
966 3 58.4023 45.0323 101.775
967 1 57.6683 47.4859 101.864
968 1 57.1414 43.7505 103.657
969 5 60.1492 43.365 102.932
970 1 58.6399 46.2511 104.582
971 1 60.8949 44.4384 105.474
972 5 60.8369 46.0344 102.552
973 4 62.502 43.9118 101.525
974 4 63.2758 45.3982 103.855
975 4 64.9299 43.2868 102.875
976 3 65.5341 44.283 105.396
977 4 61.4669 47.4583 105.141
978 1 65.0618 46.9653 105.362
979 4 65.189 47.3542 102.469
980 4 66.6066 45.2395 103.162
981 1 68.1085 43.1696 104.529
982 2 70.6598 43.7909 104.773
983 5 69.4993 45.4983 103.229
984 1 67.8132 45.742 105.908
985 1 68.1103 47.887 103.892
986 2 70.4181 47.5119 101.749
987 2 70.4817 45.9284 105.869
988 3 70.7274 47.838 104.248
989 1 73.0912 47.0653 101.271
990 1 72.3734 45.6783 103.745
991 1 73.7223 44.0346 101.476
992 4 74.895 44.4988 104.364
993 4 72.7012 47.3981 106.172
994 3 75.4214 46.0736 102.159
995 1 74.9217 47.5425 104.244
996 5 45.8205 52.61 101.827
997 2 44.4232 49.1783 104.483
998 5 42.0379 50.2197 104.937
999 3 40.816 50.0842 102.454
1000 4 43.6522 50.5299 102.186
1001 1 41.6976 52.6262 103.121
1002 1 44.4625 52.1071 104.35
1003 1 42.1959 52.8779 106.215
1004 1 48.6234 50.7381 101.415
1005 5 46.4115 50.1253 103.035
1006 1 46.8783 50.8504 105.931
1007 1 49.5245 49.5103 104.073
1008 4 47.7294 52.4835 103.715
1009 1 50.1299 52.0917 105.334
1010 5 52.2405 48.6156 103.202