# LAMMPS data file written by OVITO Pro 3.7.7
1013 atoms
5 atom types
0.0 250.0 xlo xhi
0.0 90.51 ylo yhi
0.0 181.02 zlo zhi

Atoms  # atomic

1 5 30.2847 21.0905 79.3812
2 3 32.8617 21.6187 79.5447
3 1 35.0346 21.6769 77.911
4 2 34.8541 19.3698 80.1881
5 2 40.0328 21.6257 78.9829
6 1 37.5482 23.0227 78.5592
7 1 37.4348 20.295 79.7024
8 1 42.1582 20.3115 80.4599
9 2 29.2219 25.1772 79.8148
10 4 28.8286 27.6897 78.9008
11 1 31.7339 26.5778 79.7714
12 1 31.2604 23.5827 80.6129
13 1 33.7169 24.197 79.0425
14 2 35.8023 24.9176 77.4843
15 5 33.0565 26.283 77.1195
16 1 35.1216 27.1351 79.0466
17 1 36.7221 27.481 76.6207
18 1 36.2673 24.9545 80.6182
19 4 38.093 24.7974 76.1116
20 3 38.0785 25.7118 78.6487
21 1 41.0178 26.4332 79.726
22 1 40.4139 24.223 77.8458
23 1 38.0281 28.2223 79.2602
24 1 39.7558 27.1969 76.9725
25 1 39.2356 24.2479 80.6496
26 3 43.0039 24.7486 78.6001
27 1 42.734 27.1809 77.4332
28 2 43.191 28.1038 79.9597
29 3 45.0839 26.9584 78.8894
30 4 27.9097 30.2228 79.9732
31 1 31.2912 28.7523 77.6317
32 1 30.2476 31.4128 78.6697
33 2 30.5195 29.2042 80.2888
34 4 27.9283 33.2993 79.8881
35 2 34.0291 28.7103 76.8817
36 1 33.2517 29.2437 79.778
37 1 35.9056 30.1986 78.099
38 1 32.9939 31.2949 77.4948
39 1 32.1821 33.6971 79.2218
40 4 34.3961 31.8608 79.872
41 3 34.7498 33.4735 77.8003
42 2 36.6627 33.0682 79.4868
43 3 38.396 29.7234 77.0446
44 1 40.8269 29.4119 78.9172
45 1 37.2265 32.4983 76.9063
46 1 38.5067 31.2896 79.4929
47 3 40.0219 31.5494 77.2025
48 1 41.8619 32.4565 78.9965
49 1 43.5748 30.0148 77.9502
50 1 45.8289 29.4573 79.8863
51 1 44.8578 32.3384 79.4256
52 2 43.0386 30.4505 80.6487
53 2 34.8271 34.5795 80.1831
54 4 32.9215 36.3871 80.2571
55 1 36.6987 35.4283 78.3504
56 5 35.7638 37.0583 80.5599
57 1 39.2569 33.9891 78.389
58 3 39.1728 36.5107 79.4336
59 2 43.0647 35.1105 79.8849
60 2 30.5732 17.7325 82.2533
61 1 31.3547 16.9189 84.7831
62 4 28.1211 16.6208 84.7876
63 1 33.6735 17.2879 82.6802
64 1 36.2056 16.5558 84.4452
65 1 36.6899 17.9594 81.7723
66 3 33.7982 15.6589 84.9952
67 1 41.5428 16.9715 84.8091
68 1 39.0169 16.5765 83.2055
69 2 41.8883 18.3191 82.5075
70 2 44.4633 17.4163 84.7188
71 1 25.9268 23.3952 82.7277
72 1 25.0308 21.2589 84.7079
73 3 26.6865 19.0351 85.2397
74 1 28.2072 22.6679 80.7827
75 1 27.1552 20.4244 82.7439
76 2 28.9627 19.319 80.988
77 1 30.3479 21.1947 82.3201
78 1 29.3107 19.106 84.3152
79 2 28.3815 22.651 83.494
80 2 30.3248 21.4894 84.9359
81 1 35.2007 22.0497 80.7528
82 2 32.0359 19.3996 83.6647
83 1 32.2814 19.4399 80.9385
84 3 32.9582 21.8565 82.1349
85 1 34.7424 20.0128 83.0238
86 1 35.1457 23.0626 83.5743
87 1 32.9615 21.4641 85.0514
88 1 39.6128 18.6361 80.9725
89 3 37.2669 20.4925 82.4071
90 2 36.9947 19.0743 84.4098
91 1 39.6165 19.4158 83.9332
92 2 41.705 20.839 83.0654
93 2 37.3282 22.9339 81.9471
94 1 39.5735 21.4954 81.6397
95 1 38.1753 22.1589 84.3631
96 3 40.6514 23.114 83.4318
97 1 41.982 23.2532 80.7243
98 1 42.9796 19.5819 85.0723
99 1 44.257 19.8481 82.5144
100 3 45.9743 21.6984 83.0946
101 2 44.572 22.3194 80.8387
102 1 43.4577 22.7587 83.3739
103 1 48.1434 22.0698 84.5207
104 1 23.8189 23.9781 84.9715
105 1 24.5675 26.1869 82.9984
106 1 25.5033 28.3074 84.853
107 4 26.7601 25.7335 80.8463
108 1 29.1999 27.243 81.7922
109 2 29.3902 24.5994 82.4141
110 1 27.3947 25.7852 83.796
111 1 31.6331 23.6456 83.5581
112 3 31.5834 25.9966 82.3167
113 3 28.3215 28.1965 84.3389
114 1 30.6352 26.637 84.7628
115 2 33.6913 24.525 81.7535
116 5 33.4669 25.6784 84.323
117 1 33.9974 27.2714 81.9032
118 1 36.2478 25.8387 83.532
119 2 36.6467 27.4651 81.4287
120 3 33.4818 28.3226 84.5014
121 3 38.6046 24.6593 83.1981
122 1 41.2579 25.5238 82.7559
123 1 38.8515 27.2982 84.0364
124 2 38.9404 26.7479 81.435
125 1 41.319 28.4662 81.9686
126 1 43.9006 25.6059 80.9735
127 1 46.2007 24.1721 82.3236
128 2 43.8776 25.4395 83.6639
129 1 42.2833 27.4935 84.7556
130 1 44.3455 28.3016 82.3889
131 1 46.8115 26.941 81.1394
132 1 46.2049 26.6547 84.039
133 1 48.9837 27.1574 83.4017
134 2 48.1536 24.7185 84.1843
135 1 26.5475 28.7232 82.1768
136 1 24.6166 30.9566 83.7829
137 1 26.3879 33.1596 85.219
138 4 29.0833 30.2028 82.4628
139 3 27.2487 30.4776 84.4671
140 1 31.5575 28.7887 82.7675
141 5 26.7429 31.9365 82.1186
142 4 28.9094 32.4435 83.9563
143 4 29.954 32.7945 81.2783
144 4 31.3246 31.6668 83.2551
145 2 35.9013 29.7036 80.7695
146 2 31.9437 31.2912 80.7505
147 1 36.0269 28.8976 83.6457
148 5 33.9085 30.4589 82.5347
149 1 33.2474 33.4126 82.0058
150 2 35.2188 32.1447 84.4087
151 1 36.1993 32.1949 81.9316
152 2 32.9059 30.8508 84.9708
153 1 38.4823 29.5305 81.868
154 4 40.2551 29.921 84.4002
155 5 37.7598 31.1013 84.0261
156 2 38.7081 32.8399 81.8806
157 4 40.7553 31.3216 81.427
158 1 40.6762 32.9519 83.7511
159 2 45.06 30.9492 81.9419
160 5 46.9782 29.7345 83.3438
161 1 43.2276 33.1151 81.8663
162 1 42.9471 30.7356 83.5955
163 2 43.3698 33.693 84.782
164 1 45.7583 32.7289 83.7342
165 4 48.6973 29.4017 81.2599
166 1 47.3598 32.1305 81.1703
167 1 48.8945 32.3016 83.7437
168 1 49.8173 29.6131 84.7517
169 1 24.7512 33.9984 83.1368
170 1 26.1887 36.2496 84.7736
171 2 30.382 35.4052 80.7257
172 1 27.7304 34.7306 82.5812
173 1 30.7539 34.7696 83.305
174 5 28.8006 37.1977 83.9572
175 1 31.249 37.7344 82.5227
176 1 33.3333 33.9839 84.8612
177 2 33.2687 36.0177 82.8379
178 2 33.917 38.3951 82.0434
179 1 35.8799 35.0921 82.7428
180 2 36.0787 38.032 83.1615
181 1 34.7017 36.6876 84.9722
182 2 37.7744 34.8859 80.8613
183 1 37.8264 33.7888 84.51
184 3 39.3107 35.3201 83.0448
185 1 40.581 34.5771 80.8961
186 1 38.3293 37.4778 81.7877
187 1 37.7118 36.7569 84.8868
188 4 40.3508 37.4974 83.8982
189 1 41.2862 37.5699 81.1647
190 2 44.0235 36.9315 81.5987
191 1 45.2206 35.6757 84.0079
192 1 45.6307 34.7205 81.1408
193 1 42.2499 35.5852 83.1898
194 1 43.4596 38.4467 83.8833
195 2 46.4922 37.4367 82.5113
196 2 45.9798 38.4025 84.9261
197 1 47.9917 34.9963 82.8436
198 2 48.0713 36.8601 84.9772
199 1 30.3168 39.4879 84.9211
200 1 33.2004 39.2318 84.5591
201 1 35.5758 40.6272 83.3708
202 1 38.3666 39.6587 84.0656
203 1 41.1752 40.1562 83.2209
204 2 39.741 41.9121 85.0335
205 1 26.6921 17.3739 87.3393
206 1 29.7008 16.4327 87.2919
207 4 27.8731 15.9306 89.5614
208 2 31.0101 15.8264 89.7325
209 1 32.6862 16.0836 87.3767
210 1 35.7023 15.8624 87.4148
211 3 34.3129 18.093 88.3314
212 2 38.0127 14.8112 85.7264
213 1 41.2864 14.6157 89.3335
214 1 38.485 15.5341 88.4878
215 2 40.576 15.315 86.7164
216 3 38.2839 18.2062 88.5386
217 1 38.7329 17.4039 86.08
218 1 40.8537 17.5168 88.7404
219 1 43.1818 16.5218 87.2715
220 4 45.8774 16.5806 89.238
221 2 43.5478 18.2129 89.4062
222 1 24.749 19.6125 87.1829
223 3 23.3703 22.9148 89.525
224 1 25.0573 22.6936 87.4639
225 1 27.7743 21.3955 85.7635
226 1 31.6297 18.4681 88.7964
227 1 28.9509 19.2265 87.4073
228 2 26.8475 20.779 88.1541
229 2 31.431 19.3288 86.2236
230 1 27.99 23.3414 88.127
231 1 30.5549 21.8025 87.5236
232 2 31.597 20.9392 89.8115
233 2 36.3673 18.404 86.8161
234 1 33.968 18.4245 85.6109
235 1 33.5515 20.7147 87.8556
236 1 36.5303 20.2085 88.7347
237 1 35.843 21.0631 85.8692
238 2 35.4134 22.6905 88.6457
239 3 38.3748 20.1189 86.3347
240 3 40.7894 18.9956 86.4865
241 1 39.706 20.3946 88.5819
242 1 37.9547 22.683 87.4704
243 1 40.8159 23.1542 88.1193
244 1 40.8036 21.6385 85.6538
245 2 45.5165 20.7697 85.3321
246 2 43.4742 22.0666 86.0347
247 1 42.6958 20.3216 87.9439
248 1 45.1789 18.7628 87.1992
249 1 46.9442 19.2236 89.7699
250 3 42.6706 22.1727 89.7433
251 1 45.6375 21.7299 88.2012
252 1 47.8286 20.1852 86.8191
253 1 49.1335 21.399 89.2788
254 1 48.0068 23.2942 87.1686
255 3 26.6067 23.7372 85.4464
256 1 22.9346 26.8223 85.497
257 1 25.9477 25.4345 88.5678
258 3 25.4691 25.8135 85.8737
259 5 23.2294 25.017 87.7972
260 2 22.2812 27.4849 88.1413
261 2 24.86 27.6754 87.4078
262 2 26.7069 28.012 89.2242
263 1 29.3641 24.0289 85.444
264 1 28.0304 26.2929 86.6769
265 3 30.3267 24.7134 87.8231
266 2 30.3762 27.4574 87.4112
267 1 28.8808 26.1885 89.5828
268 4 31.6765 26.1423 89.5127
269 1 32.7623 23.528 88.8533
270 2 31.9474 23.7276 86.1952
271 1 34.6022 23.9099 86.3978
272 1 36.4348 25.3167 88.3229
273 4 32.6413 26.0852 86.9702
274 1 35.3574 27.2495 86.224
275 1 34.23 27.2619 89.2071
276 2 37.0741 24.3883 85.564
277 2 39.201 25.4126 88.5173
278 1 39.7707 24.7275 85.6053
279 1 37.9327 27.9588 88.9436
280 3 37.9517 26.5508 86.4941
281 4 40.1782 27.929 86.5979
282 1 41.7104 25.9147 87.6711
283 3 40.6555 27.8785 89.2325
284 2 42.3968 24.293 85.4143
285 5 43.6422 23.7625 87.9124
286 4 44.1058 26.243 89.4565
287 2 46.0428 24.8034 88.3296
288 1 45.6499 23.5801 85.34
289 1 44.4308 26.0613 86.3378
290 1 43.1443 28.4778 87.8714
291 1 46.33 27.6085 87.9695
292 2 47.3638 25.7637 86.2901
293 3 50.0412 24.1816 85.7168
294 1 49.8406 26.8436 86.35
295 3 47.561 28.3503 85.6086
296 2 48.4268 26.2258 88.624
297 1 50.8678 27.2514 89.3126
298 1 50.4391 24.3445 88.5095
299 1 24.5671 30.0171 88.7501
300 2 21.8107 29.8065 88.8032
301 1 23.1112 29.6936 86.2231
302 2 23.6576 32.4344 85.9552
303 4 22.6768 32.4723 88.6142
304 3 25.6009 30.8284 86.3648
305 1 25.5191 32.9293 88.0861
306 2 29.2691 29.2682 88.6199
307 1 27.3843 29.0339 86.8747
308 1 30.2121 29.6743 85.5092
309 2 28.3735 33.6367 88.5945
310 1 27.3617 30.9349 89.4703
311 1 28.4237 31.7614 86.7798
312 4 31.0449 32.7001 85.7711
313 1 31.04 31.4147 88.3446
314 5 31.4385 28.7851 89.7522
315 1 32.7172 28.9899 86.9774
316 3 33.5638 30.059 89.1642
317 3 35.0615 30.0401 85.793
318 1 33.8408 32.0698 87.2612
319 3 32.7177 33.3677 89.3384
320 2 35.6582 29.4714 88.0567
321 1 36.73 32.0552 86.7373
322 1 37.7632 29.3249 86.2678
323 1 40.4286 30.3515 88.0361
324 1 37.6806 30.9695 89.2992
325 3 39.289 31.8469 85.9579
326 1 39.5399 33.2589 88.1645
327 4 41.7696 32.4323 86.2627
328 3 42.291 29.9933 86.0257
329 1 44.917 29.0166 85.3646
330 1 43.5253 31.4947 88.3099
331 3 45.6689 30.1029 87.7067
332 1 45.1289 33.6679 87.0673
333 3 44.389 31.5166 85.7432
334 1 46.6365 31.8467 89.4539
335 1 50.3244 31.9689 86.5482
336 1 48.7432 29.4686 87.7139
337 1 51.6451 29.3623 87.3408
338 5 48.1109 33.5931 87.6401
339 1 47.1928 31.3304 85.9928
340 2 49.4004 31.8332 89.1105
341 5 52.1196 31.6283 89.2068
342 2 24.3039 34.8616 86.2086
343 1 23.802 35.4418 88.8969
344 2 26.539 38.3577 87.1646
345 1 26.6191 35.6569 87.6912
346 1 28.8345 34.8848 85.7664
347 5 30.7527 34.5366 87.8404
348 1 29.1818 37.6804 87.1077
349 1 28.8257 36.1883 89.6765
350 1 31.6178 36.6586 85.4434
351 3 31.6241 37.0624 88.0525
352 2 30.5754 38.4364 89.7701
353 1 36.5055 34.075 88.913
354 2 35.7239 34.4577 86.0832
355 2 33.6937 38.0156 86.9626
356 1 33.5781 35.231 87.6008
357 1 33.8743 37.8435 89.6484
358 1 36.1345 36.8276 87.7907
359 3 38.0021 35.045 86.9397
360 2 38.7588 37.6126 87.2437
361 1 38.8663 35.8588 89.4654
362 1 40.3731 35.2214 85.8083
363 1 41.3574 37.0875 88.3169
364 4 40.9601 38.5991 85.9678
365 1 39.2881 38.7602 89.8303
366 4 42.3052 34.2664 87.9752
367 1 43.1778 36.3349 86.038
368 2 43.9065 36.2428 88.7295
369 1 46.3043 35.1445 89.5121
370 2 45.8832 37.7221 89.29
371 1 46.0524 36.4408 86.8275
372 2 47.2593 34.3372 85.3639
373 4 49.9106 34.7179 85.4226
374 5 50.936 34.1389 88.4239
375 1 48.8811 36.3267 87.7681
376 2 31.4751 41.8664 86.1024
377 2 29.0668 40.5345 87.1189
378 5 30.359 41.7992 89.1892
379 1 31.7647 39.7055 87.6394
380 1 28.1512 39.5605 89.502
381 1 36.1515 39.2563 86.0776
382 2 36.8651 39.1997 88.8298
383 1 34.2427 41.6397 85.9066
384 1 33.2785 42.4746 88.6035
385 2 34.4928 40.0272 88.16
386 1 36.3715 42.0555 88.0161
387 3 37.0781 41.7506 85.3931
388 1 38.889 40.385 87.1416
389 3 40.7457 42.1199 88.3266
390 2 41.4069 39.7328 88.311
391 1 44.2193 39.0582 87.0326
392 1 42.1805 41.0864 86.0358
393 1 43.4002 41.5651 88.8296
394 2 45.9255 40.3044 89.4411
395 1 47.3724 38.9564 87.4307
396 4 29.2283 18.0611 90.4213
397 4 29.6142 15.3926 91.9717
398 1 29.5072 17.7681 93.5178
399 4 27.0282 16.9893 92.1803
400 1 33.807 15.8605 90.1897
401 3 34.569 15.8586 93.8864
402 5 32.4031 14.9632 92.6868
403 1 31.9308 17.6653 91.6961
404 2 34.9847 13.867 92.5667
405 1 36.495 14.5413 90.4123
406 1 36.2987 17.5557 90.0775
407 2 34.5613 17.5565 92.2242
408 2 38.9779 13.2147 90.2114
409 1 38.0336 13.716 92.9489
410 1 36.9677 16.4275 92.8061
411 1 38.9734 18.257 91.311
412 3 39.1041 15.619 91.0901
413 3 39.577 16.0299 93.5536
414 1 40.9132 13.8641 92.2062
415 1 41.6511 16.6776 91.6185
416 2 40.7586 18.2153 93.5622
417 3 43.5762 15.7477 90.0099
418 1 43.8924 14.9168 92.6599
419 1 46.0492 16.5532 94.2032
420 5 43.0857 17.2527 94.2005
421 1 44.6696 17.7427 91.7896
422 3 47.4098 17.6278 92.0328
423 4 23.6685 20.2998 89.8604
424 1 26.3024 18.8209 89.8956
425 4 24.8732 20.2381 92.6337
426 1 23.3792 22.8596 92.2596
427 1 25.927 22.0062 90.4733
428 5 30.1904 23.3715 90.2554
429 4 27.5326 19.8145 92.3707
430 1 30.7331 20.2704 92.263
431 1 28.7966 20.8788 89.9491
432 5 28.5254 22.4435 92.4176
433 1 31.1119 22.8535 93.7708
434 5 33.9839 19.5297 90.5371
435 5 33.6113 19.7415 93.4322
436 5 36.4802 19.5299 92.5334
437 3 35.0016 21.9095 93.5787
438 1 33.0653 22.1316 91.6596
439 4 35.7579 21.7064 91.0068
440 2 38.2162 20.8314 90.8116
441 1 39.9224 20.7073 93.0228
442 1 41.6235 19.6736 90.8125
443 1 37.5422 22.3234 93.1753
444 2 40.3216 22.1217 90.5669
445 4 42.7745 19.9438 93.4241
446 1 44.4519 20.5164 90.7309
447 3 46.3376 19.8165 92.5924
448 2 42.4078 22.3424 92.1578
449 1 44.7675 21.9074 93.4077
450 2 46.9084 21.7364 91.0792
451 1 48.9682 19.9569 91.9963
452 3 49.5552 22.5275 91.7362
453 1 47.7168 22.1508 93.7056
454 3 24.8468 24.5009 90.6684
455 1 22.219 25.1949 90.6018
456 1 26.136 23.8264 93.09
457 1 24.1156 27.359 90.0974
458 2 24.0639 25.5657 92.7256
459 3 21.7112 27.928 91.1285
460 1 23.8708 28.2136 92.9758
461 1 26.4539 26.4565 91.7089
462 1 21.6036 26.2434 93.3317
463 3 27.4532 24.1537 90.6339
464 2 29.2907 25.0616 92.1521
465 2 31.0892 25.5706 94.1055
466 1 28.4252 28.5154 91.2428
467 1 28.5237 26.7543 94.0094
468 1 31.086 27.638 92.3524
469 1 33.9137 24.2939 93.8885
470 5 32.0187 24.8556 91.7498
471 1 34.8903 24.4279 90.7956
472 5 36.8239 25.1135 92.8926
473 1 34.1573 26.8467 92.3655
474 3 36.5365 26.5915 90.7928
475 1 37.9966 23.6654 90.3544
476 1 41.8983 24.6916 90.5381
477 1 40.097 23.7571 92.5995
478 3 41.0783 26.0824 93.3301
479 2 37.8296 28.4122 91.9486
480 1 39.3732 26.376 91.1456
481 1 38.5655 26.9533 94.0874
482 1 43.0819 24.3184 94.0967
483 2 46.0413 24.1487 92.8372
484 1 44.8026 23.5577 90.6387
485 1 42.2775 27.5885 91.3057
486 1 43.0636 27.5926 94.273
487 2 44.0635 25.7848 92.2064
488 2 44.9876 28.1659 92.5564
489 1 46.4577 26.3725 91.0782
490 1 46.2454 26.3917 94.1266
491 1 47.8988 23.9915 90.1137
492 1 50.96 24.7473 91.4825
493 3 48.3615 24.5853 92.5613
494 3 49.0271 26.472 91.0124
495 1 52.2666 27.3997 91.949
496 3 47.6319 28.3146 92.9555
497 1 49.6167 26.5825 93.5779
498 3 49.9499 28.569 91.8778
499 1 50.3203 23.4904 94.2778
500 2 52.1015 25.6674 94.2225
501 1 22.7295 30.4609 91.2653
502 2 25.7096 29.3857 91.2191
503 2 26.6037 28.6679 93.4857
504 3 22.3057 32.1508 93.4771
505 4 24.5966 31.047 93.3459
506 4 25.1535 32.0905 90.856
507 3 29.2424 29.4828 93.5234
508 1 31.6458 30.6903 93.4101
509 1 28.0005 33.4618 91.2176
510 1 29.8712 30.9863 91.0913
511 1 27.3385 31.1501 92.7952
512 3 30.4845 33.4518 90.3319
513 2 30.2139 32.917 93.0206
514 3 33.1646 29.2073 91.6032
515 1 35.8341 28.8001 93.7253
516 1 35.6488 29.2482 90.7788
517 3 32.3893 31.3598 90.791
518 5 34.4084 31.1729 92.8258
519 1 32.7722 33.5622 92.1426
520 1 34.8992 32.0714 90.1418
521 2 33.1895 28.7286 94.1379
522 1 38.4683 30.1391 94.0612
523 1 39.8118 29.8502 91.0706
524 2 40.705 28.6287 93.2775
525 2 36.9967 31.2831 92.0635
526 1 38.6936 33.2003 91.1009
527 4 38.1734 32.8871 94.0385
528 4 40.7016 31.7008 93.2725
529 1 41.5203 32.3147 90.4087
530 1 43.0692 30.238 92.6688
531 3 42.2911 29.8532 90.0246
532 1 46.2726 30.5248 92.4413
533 1 44.8743 29.1532 90.1494
534 5 43.1449 33.5082 92.4706
535 3 44.2895 31.6885 90.8802
536 1 46.0622 33.4535 92.041
537 1 47.8648 28.9107 90.3478
538 3 50.4666 29.7785 89.863
539 3 49.4474 29.7839 93.8387
540 1 49.0339 31.3598 91.7181
541 1 51.8872 30.4008 92.1102
542 1 51.336 33.3712 91.4493
543 2 48.5983 33.6464 93.1274
544 1 50.7338 32.257 94.2243
545 2 25.8745 34.6371 90.233
546 1 22.944 33.7685 91.3251
547 1 25.3926 33.9442 93.0954
548 1 25.9371 37.6021 89.9508
549 2 24.1998 36.2142 91.7171
550 1 22.8575 34.6199 94.3104
551 3 24.8089 36.5103 94.1807
552 1 25.9747 38.6111 93.0179
553 3 27.9667 33.8292 93.9302
554 1 28.7602 38.2068 92.0821
555 1 29.8913 35.4348 92.4997
556 4 26.9476 36.0191 92.0703
557 1 31.8045 35.7487 90.2891
558 1 31.8198 38.0616 92.1116
559 5 35.927 34.047 91.9774
560 4 33.9741 36.1352 92.3678
561 2 32.1472 35.6672 94.0431
562 3 34.4218 35.1034 90.1022
563 2 34.7068 38.7562 92.2214
564 1 36.53 36.9913 90.8328
565 5 36.0015 36.9694 93.7769
566 1 41.5708 35.2563 90.6346
567 2 40.5087 34.2606 92.8458
568 4 38.094 35.3655 92.9537
569 3 39.4585 37.0452 91.9239
570 3 41.5372 37.8363 91.0977
571 1 41.9165 36.5447 93.4758
572 1 43.5652 38.7776 89.8895
573 3 44.0078 33.879 89.9086
574 4 44.6323 35.0282 94.2643
575 1 44.2514 36.314 91.5495
576 2 44.9272 37.5659 94.2159
577 1 47.1546 36.1541 92.5194
578 2 50.6772 36.2638 90.0682
579 1 48.7952 34.2666 90.4709
580 1 48.334 37.7692 90.2832
581 4 48.5293 38.6102 93.1325
582 2 49.9246 35.8467 92.4997
583 3 27.7611 40.6733 92.2403
584 3 30.0692 40.3929 91.3829
585 1 31.3924 42.6807 91.9866
586 1 30.9948 40.3232 93.9102
587 4 29.053 42.3735 94.0602
588 3 36.4936 43.236 90.6316
589 1 32.6167 40.3859 90.5346
590 5 33.7513 41.017 93.2393
591 2 34.0305 42.8581 91.2229
592 1 36.5103 42.1071 93.1946
593 1 35.5785 40.6903 90.6084
594 4 34.3852 43.9943 93.5578
595 1 37.6558 39.3734 92.311
596 1 40.5056 39.1637 93.3724
597 1 38.6126 41.6459 89.985
598 1 39.5046 42.1369 92.7436
599 1 41.4236 40.5453 90.9212
600 2 41.4449 43.1387 90.7849
601 3 43.2055 38.9004 92.7201
602 1 45.9037 38.8897 91.8711
603 1 42.327 41.5421 93.707
604 3 44.0753 40.9901 91.5302
605 1 45.0297 40.4488 94.1844
606 4 27.8101 16.2931 95.7057
607 4 29.838 15.5994 97.8016
608 4 30.3196 15.2443 94.9637
609 1 27.6055 17.6669 98.394
610 1 29.8358 18.3312 96.3955
611 1 32.3761 17.3019 94.6819
612 1 35.9865 13.9416 95.216
613 5 32.9684 14.3165 95.5409
614 1 33.6004 14.8339 98.6719
615 1 36.8067 15.2259 98.0745
616 1 34.6937 16.3762 96.425
617 1 32.12 17.2615 97.9426
618 3 35.5314 18.1292 94.5298
619 2 36.5235 18.3144 96.9081
620 1 39.0193 14.427 95.7202
621 2 41.8157 14.8619 94.4602
622 3 37.1606 16.2835 95.3958
623 4 41.7295 13.9045 96.9681
624 1 40.8401 16.7794 95.9783
625 2 38.5569 17.1516 97.1839
626 1 39.7318 15.2176 98.6573
627 1 40.6173 18.2783 98.5685
628 1 44.0653 15.4828 96.2192
629 3 42.2851 16.1612 98.4307
630 1 43.3632 18.2652 97.02
631 5 44.8456 16.4476 98.9446
632 1 46.3962 17.8995 96.9762
633 4 23.6839 21.2688 94.9676
634 4 25.256 19.0687 96.9086
635 1 25.053 21.8966 97.5242
636 5 26.4547 21.5585 94.8947
637 4 26.8199 18.6284 94.7676
638 4 28.9692 20.5889 94.5819
639 1 27.8573 20.3893 97.3443
640 2 31.4986 19.9923 94.9852
641 2 31.6974 20.0897 97.6467
642 1 30.2848 22.0517 96.6456
643 1 27.558 23.4122 97.9081
644 1 33.3282 21.9699 95.7098
645 1 36.3775 20.6672 95.5436
646 1 33.9354 19.2282 96.4355
647 2 33.9557 20.593 98.6621
648 1 36.6952 20.3066 98.7589
649 1 32.6471 22.9265 98.5549
650 2 35.2942 22.2889 97.5139
651 3 41.4477 22.2942 94.5841
652 1 38.3595 18.52 94.6464
653 1 41.0998 19.8243 95.8461
654 2 38.725 19.6996 97.1323
655 1 38.0619 22.8076 97.7676
656 2 38.957 21.5186 95.4695
657 1 41.1021 22.5562 97.2052
658 3 42.2498 20.4261 98.4209
659 4 44.9777 19.2346 94.7291
660 5 43.6422 21.4674 96.1413
661 4 46.56 20.9061 96.071
662 4 44.8723 20.1687 98.3388
663 2 43.3869 22.6288 98.8655
664 3 45.7767 22.5176 97.965
665 1 47.9821 18.8932 94.5505
666 4 47.7367 20.5786 98.4787
667 3 49.3626 21.0936 95.5024
668 1 48.4111 23.1912 97.0668
669 1 23.4287 24.1643 95.0076
670 2 26.0118 23.9841 95.8182
671 1 22.9141 27.0458 95.8923
672 1 24.5219 24.9197 97.8423
673 2 22.8341 26.876 98.7289
674 1 25.6329 26.4657 94.8572
675 2 25.2206 27.5806 97.5425
676 1 28.6357 23.9654 95.0413
677 1 27.6567 26.2156 97.088
678 2 30.038 24.164 98.2534
679 3 30.1437 25.8688 96.342
680 3 29.8397 27.8342 97.7783
681 1 30.7378 28.3077 95.3111
682 3 31.8359 24.1794 96.1129
683 1 32.0124 25.9486 98.3268
684 1 36.3037 23.8048 95.5355
685 3 35.8233 26.4718 95.0461
686 2 34.1569 24.5452 97.0018
687 3 36.1915 24.5017 98.3824
688 1 33.1641 26.5528 95.5376
689 1 35.1714 27.0278 97.8074
690 1 37.8923 26.1439 96.8703
691 1 39.3052 24.1387 95.2449
692 2 39.9315 24.8279 98.0026
693 3 37.6825 28.001 98.7222
694 1 41.4516 25.8899 96.0963
695 1 40.3188 27.4402 98.6774
696 2 43.3457 24.02 96.8482
697 1 45.7601 23.7424 95.6425
698 1 42.6453 25.6261 98.9538
699 2 42.7898 28.2497 96.9267
700 1 44.6019 26.3955 96.5723
701 2 46.3645 28.0832 97.777
702 1 45.5574 24.8833 98.9687
703 2 47.2516 25.9065 96.9735
704 2 48.1523 24.7992 94.9785
705 5 50.1295 25.9204 96.4819
706 1 48.2918 28.1107 95.6677
707 1 51.5628 28.5018 94.6713
708 1 48.9406 28.4165 98.5939
709 5 22.0614 29.7332 94.6698
710 1 22.6279 29.4397 97.666
711 3 24.9201 30.3583 98.2121
712 1 24.9849 29.4642 95.6543
713 1 23.6888 32.1037 96.0337
714 3 22.7574 31.9664 98.5235
715 1 25.1431 33.2193 98.8653
716 2 26.271 32.3082 94.9945
717 1 27.8917 29.0327 95.907
718 1 29.6511 30.4651 98.2227
719 1 26.9988 31.5271 97.2913
720 2 31.427 30.8019 96.1827
721 1 29.1246 31.6969 95.1275
722 2 29.9433 32.8706 97.3391
723 1 27.3355 28.7179 98.8436
724 4 35.2976 33.1027 94.4417
725 1 32.5801 28.704 97.5272
726 2 34.9891 29.778 98.2508
727 1 32.31 33.1047 95.1314
728 1 34.2118 30.6074 95.7567
729 1 32.6671 31.4196 98.5223
730 3 34.2648 33.1022 96.9579
731 1 36.8163 31.9949 96.7054
732 1 36.9446 29.0148 96.4004
733 2 39.0401 29.8681 97.9591
734 1 40.2121 28.605 95.937
735 1 41.6971 30.0849 98.4562
736 3 38.1947 33.5693 98.368
737 1 39.8129 31.8482 96.3718
738 4 42.0463 33.4061 94.9908
739 1 45.5255 29.1552 95.1871
740 4 42.3737 30.5511 95.4905
741 3 42.4794 32.5482 98.7083
742 1 44.8068 32.0792 94.5941
743 1 44.5572 30.7397 97.5361
744 5 44.0174 33.5586 96.9406
745 1 46.8086 32.8531 97.4309
746 3 47.3383 30.2457 97.0775
747 1 50.1164 30.3446 96.5164
748 1 47.7829 31.5415 94.7989
749 3 49.3648 32.9417 96.5402
750 2 48.9633 31.4534 98.7297
751 4 22.7979 34.5284 97.4334
752 1 25.3058 34.7191 96.1285
753 2 25.9523 37.8221 96.3808
754 1 27.491 36.3558 94.7527
755 4 30.2036 37.5334 94.4825
756 1 29.9528 34.8055 95.5279
757 2 27.7505 34.0709 96.7459
758 2 29.4914 35.2429 98.395
759 1 26.7373 35.8405 98.6355
760 1 28.7915 37.5029 97.2121
761 1 32.0238 34.2209 98.0719
762 1 33.3474 38.2319 94.5943
763 1 34.3555 35.5126 95.7691
764 1 31.8704 36.7918 96.7122
765 3 34.2921 38.1049 97.0713
766 2 36.1568 34.9962 97.8721
767 2 36.4133 37.2995 96.3678
768 1 36.4342 37.8158 99.0216
769 1 34.0155 36.1216 98.9146
770 4 37.2097 34.792 95.5451
771 4 40.9647 34.129 97.4393
772 4 38.4753 37.5715 94.574
773 1 38.6358 36.224 97.5685
774 4 39.9203 35.1643 95.2087
775 2 40.5801 37.7075 95.9413
776 2 41.1408 36.6353 98.1482
777 4 47.0588 34.4502 95.0855
778 1 42.8794 36.1124 96.218
779 3 43.4543 37.6585 98.2611
780 4 45.7451 38.8341 96.6175
781 1 45.6607 35.8997 97.3534
782 4 47.5183 37.1867 95.2448
783 4 47.9542 37.5633 98.0181
784 4 49.7188 35.0945 95.0678
785 4 48.5987 34.9787 98.1053
786 1 28.1559 39.5902 94.8926
787 2 30.79 39.1381 96.3485
788 4 27.729 40.1264 97.6764
789 1 30.337 41.595 96.8681
790 3 29.9325 39.5479 98.8329
791 1 32.5568 39.5823 98.3198
792 1 32.1657 42.9041 94.9293
793 3 33.0377 40.477 95.8889
794 1 35.8822 39.6836 94.9797
795 3 34.8122 42.1387 95.5239
796 1 35.49 40.3854 97.8784
797 1 33.2418 42.4465 97.747
798 3 38.4117 40.6221 94.647
799 5 40.1338 42.8355 95.4445
800 1 38.3533 39.2303 96.9614
801 1 41.2657 39.2781 98.2032
802 4 37.3102 42.3506 96.3586
803 1 39.6483 41.7805 98.117
804 2 40.5501 40.3172 95.7712
805 1 42.9333 38.9905 95.5784
806 2 42.5185 41.6165 96.6009
807 3 43.9288 40.0576 98.0549
808 4 30.0902 16.6563 100.451
809 1 33.018 16.8556 101.116
810 3 35.5005 15.5038 100.45
811 1 35.8881 17.5818 102.061
812 1 34.9497 17.7924 99.0605
813 2 38.0529 15.3873 100.967
814 1 40.8288 16.604 101.012
815 1 37.9277 17.8006 99.7837
816 4 38.7113 17.4594 102.926
817 2 25.6545 19.8393 99.5001
818 1 26.5834 21.6584 102.167
819 2 25.5112 23.2204 99.9443
820 1 28.0525 19.2447 100.879
821 2 27.424 21.4886 99.6758
822 2 30.0304 18.811 99.0511
823 1 30.1323 21.4044 99.5927
824 1 30.8266 19.1477 101.912
825 5 29.6567 21.7727 102.452
826 2 32.4967 19.127 99.85
827 5 32.6209 21.4128 101.106
828 1 33.5303 19.2727 103.074
829 2 34.8443 19.8006 100.859
830 1 35.2971 22.4656 100.251
831 4 35.3112 21.7428 103.126
832 1 37.3934 20.305 101.776
833 1 39.6938 20.9451 99.3643
834 2 39.9249 19.1701 101.256
835 2 41.7034 18.9984 102.889
836 3 37.974 22.8018 100.497
837 1 39.8292 21.819 102.329
838 1 42.4617 21.2041 101.106
839 1 43.0822 18.4252 100.232
840 4 46.0907 18.7613 100.213
841 4 44.4234 19.602 102.606
842 1 45.4299 21.7516 100.605
843 1 44.3546 22.4742 103.327
844 3 47.5484 23.097 99.7146
845 3 25.921 24.3899 102.146
846 1 26.4762 25.9279 99.8734
847 1 24.624 28.4331 100.139
848 3 24.0394 25.6417 100.727
849 1 25.6466 27.052 102.683
850 1 28.3518 23.6726 100.825
851 1 29.4264 26.2724 99.8955
852 2 28.0438 25.802 102.294
853 2 31.1615 23.8808 100.625
854 2 27.7452 28.0778 101.335
855 1 30.0245 27.5556 102.786
856 1 30.3477 24.478 103.226
857 1 34.3379 25.2341 100.071
858 4 32.0586 26.237 101.426
859 1 33.2515 23.8009 102.567
860 1 36.4365 24.5395 102.114
861 2 33.5548 27.8608 99.9587
862 1 36.1509 28.0057 100.734
863 1 34.6318 26.9204 102.874
864 1 38.105 25.5366 99.8744
865 1 40.8316 23.595 100.125
866 3 39.1116 24.3401 102.167
867 1 41.848 23.9671 103.005
868 3 38.1866 26.7692 102.228
869 1 40.7498 26.3746 101.471
870 5 40.0034 28.5166 103.537
871 2 43.6405 23.8865 100.97
872 1 46.2589 24.4521 101.882
873 1 44.1871 28.2245 99.2572
874 1 43.825 26.4837 101.688
875 1 46.773 27.2184 100.473
876 1 46.1326 27.0652 103.523
877 1 48.7013 25.424 99.118
878 1 25.9085 30.0719 102.356
879 2 26.5511 31.0006 99.9307
880 2 24.0581 31.1576 100.516
881 2 26.5961 32.8137 101.715
882 1 28.1569 33.173 99.47
883 3 30.5933 32.4947 99.7782
884 1 31.0166 28.775 100.151
885 1 28.8104 30.5558 101.244
886 2 31.607 31.0231 101.406
887 1 29.9084 33.0906 102.35
888 3 28.0005 29.1492 103.596
889 1 35.3338 32.8787 99.2835
890 2 32.5753 28.7674 102.446
891 1 34.1533 30.3279 100.797
892 3 36.6751 30.5083 101.82
893 2 34.7878 29.8513 103.344
894 1 32.8426 33.4935 100.928
895 1 32.9764 31.937 103.545
896 3 35.1066 32.4452 101.993
897 5 37.0948 30.6751 99.3362
898 1 39.8221 31.9137 99.6481
899 1 39.0185 29.112 100.89
900 2 41.9721 28.6179 100.755
901 1 41.2052 30.8664 102.067
902 1 37.6278 32.9991 101.23
903 3 38.6947 30.9783 103.06
904 3 41.888 33.1361 100.956
905 1 39.8522 33.4407 102.975
906 1 42.9353 28.867 103.369
907 2 45.1689 29.091 101.848
908 3 42.3169 33.0274 103.446
909 1 43.725 30.9919 100.567
910 2 45.0474 32.9687 99.4017
911 1 46.6401 30.3284 99.7088
912 3 43.821 31.2603 103.16
913 1 46.3241 31.781 102.399
914 4 47.9844 29.2825 102.185
915 1 47.6262 33.2857 100.298
916 1 27.9709 35.2717 101.446
917 2 30.6155 34.9436 100.604
918 2 28.4987 37.6795 100.027
919 1 30.0883 37.067 102.359
920 1 31.1403 37.2183 99.4463
921 1 35.3915 35.053 101.349
922 2 34.1295 38.5478 100.254
923 1 32.9987 36.5673 101.786
924 2 31.9318 34.5969 103.264
925 1 36.6701 37.5353 101.956
926 2 37.5504 35.4887 99.9874
927 1 40.1601 34.87 100.021
928 2 39.0226 35.9997 102.137
929 1 39.3107 37.8062 100.116
930 3 41.8927 37.1835 100.338
931 2 41.7059 35.3573 102.149
932 1 41.0137 38.0214 102.665
933 5 37.2206 34.8109 103.559
934 1 43.2411 35.1466 99.3318
935 1 44.2211 33.8132 101.842
936 1 44.0831 36.7654 101.879
937 1 45.6321 37.9777 99.5974
938 2 45.9284 35.3296 100.034
939 2 46.5637 34.7757 102.593
940 1 31.5191 39.5118 101.259
941 3 31.2008 41.6509 99.4715
942 4 36.0654 42.7567 99.1868
943 1 33.9954 39.1422 102.961
944 2 33.6293 41.1771 100.311
945 1 36.0582 40.372 101.161
946 2 38.0381 40.0472 99.4394
947 3 38.5081 39.541 102.111
948 5 38.3008 42.2049 100.86
949 1 40.589 40.5261 100.805
950 1 43.2575 39.3744 100.597
951 4 28.3932 19.7888 103.694
952 4 36.3097 19.3051 104.433
953 2 31.981 21.5269 103.701
954 4 34.1972 21.3035 105.527
955 2 35.1719 23.3701 107.377
956 4 37.1412 21.5663 105.949
957 1 39.2645 19.9965 104.365
958 3 41.9528 21.3101 103.94
959 2 37.7531 22.9269 103.817
960 1 40.109 22.8418 105.296
961 1 27.6951 23.7062 104.067
962 5 29.9501 25.3144 106.073
963 1 27.8371 26.7898 104.749
964 2 30.281 28.02 105.438
965 1 32.2287 23.4723 105.615
966 3 33.6829 25.3622 106.943
967 1 32.3517 26.2744 104.578
968 1 35.0674 24.2416 104.847
969 5 36.0363 26.1875 108.18
970 1 31.9726 27.3059 107.409
971 1 35.1606 27.2844 105.79
972 1 37.6224 24.3971 106.374
973 1 39.6275 25.6537 104.372
974 4 40.3753 25.5054 107.232
975 3 36.9847 26.0099 104.257
976 1 38.2098 27.3887 106.325
977 1 41.1763 28.2867 106.075
978 3 42.2918 24.7766 105.562
979 3 44.2476 25.0917 103.928
980 3 42.0519 26.524 103.866
981 1 43.9621 27.2558 105.618
982 1 27.8447 31.8635 104.01
983 1 30.4818 30.2687 103.795
984 1 31.2271 30.3147 107.079
985 2 28.6764 29.9448 105.925
986 1 30.6017 32.7406 105.408
987 1 36.4005 32.0126 104.213
988 1 32.9648 29.1648 105.085
989 1 34.1418 29.2773 107.906
990 3 35.727 29.8714 105.733
991 1 33.9326 31.8908 106.301
992 2 36.6019 31.8053 107.21
993 1 37.122 28.6759 103.691
994 5 36.9709 29.2009 108.093
995 4 40.5973 31.1741 107.447
996 1 38.5075 30.3084 105.738
997 1 38.7279 33.3527 105.763
998 2 40.785 31.1943 104.636
999 1 41.7902 33.4903 105.895
1000 1 45.6734 29.8228 104.574
1001 1 43.1282 30.7038 105.81
1002 1 44.7224 33.1217 104.756
1003 2 29.639 35.1086 104.286
1004 2 34.466 34.2043 103.713
1005 1 32.8527 34.6556 105.806
1006 5 35.8065 34.2833 106.101
1007 5 35.1639 36.7197 104.383
1008 1 32.1716 37.1664 104.503