# LAMMPS data file written by OVITO Pro 3.7.7
1013 atoms
5 atom types
0.0 250.0 xlo xhi
0.0 90.51 ylo yhi
0.0 181.02 zlo zhi

Atoms  # atomic

1 1 42.5753 61.7063 84.9554
2 1 44.7847 59.6973 84.4244
3 1 50.3572 59.2942 83.2291
4 5 47.7181 59.2387 84.3406
5 2 46.5738 61.5045 85.2783
6 1 48.0991 61.7297 82.8664
7 1 49.7138 61.3898 85.3616
8 3 53.1801 58.677 83.0551
9 1 52.4238 60.3614 84.9422
10 3 54.916 60.4387 83.5939
11 1 52.0253 57.4145 85.1368
12 1 54.9882 58.3893 85.4313
13 1 57.3144 60.2563 85.1717
14 1 45.1278 62.5599 83.2302
15 2 44.1223 65.5384 83.0294
16 1 42.1284 64.7396 84.6891
17 1 46.5068 65.3036 84.2107
18 2 46.894 64.0642 81.7535
19 1 49.3195 64.5864 83.0905
20 5 47.4304 66.7398 81.6891
21 2 48.0225 63.3538 85.089
22 2 51.0307 62.1162 82.9423
23 1 52.2366 64.7923 82.2178
24 3 53.511 62.5697 83.6823
25 2 54.8168 63.8193 81.8368
26 1 55.1625 66.5258 81.9387
27 1 54.1982 65.1141 84.3765
28 3 50.8999 66.3391 84.5276
29 1 51.5252 63.8327 85.1056
30 1 56.4494 62.7048 83.678
31 1 57.2164 65.6153 83.881
32 1 59.0925 62.9636 85.2561
33 1 61.0338 65.3722 85.7829
34 4 40.1084 69.4009 85.7042
35 1 42.3267 67.9247 84.4764
36 5 43.7145 70.4747 83.6723
37 1 45.4144 68.0683 83.3633
38 2 48.5498 67.3398 84.0144
39 1 50.4256 67.164 81.9044
40 2 46.1098 70.7514 82.3646
41 1 48.6448 69.5008 81.9868
42 1 47.4012 70.0216 84.6372
43 1 50.5887 69.056 84.4138
44 1 51.8956 70.0283 81.9353
45 2 52.8549 67.3947 83.2562
46 1 55.0192 69.4577 81.9894
47 1 53.556 69.7165 84.4767
48 4 52.9334 67.5949 80.4881
49 2 55.2955 67.7128 84.4322
50 3 59.375 67.1719 84.7089
51 2 57.4857 68.3233 83.2099
52 1 56.638 70.6785 84.4015
53 1 59.5846 69.8629 85.1001
54 2 61.963 68.1203 85.7929
55 1 43.812 73.233 84.5334
56 4 41.0497 72.2872 85.1067
57 3 46.425 72.6597 84.0107
58 1 49.0589 72.2035 83.2926
59 5 48.0231 74.8462 83.9661
60 3 45.8019 74.8802 85.347
61 3 49.7771 73.7418 85.5625
62 1 49.6143 77.0237 85.052
63 4 51.645 72.8938 81.5729
64 4 54.1031 75.2629 83.1238
65 1 51.1605 74.9361 83.6059
66 1 51.8025 72.1403 84.4904
67 2 53.2885 74.3015 85.3347
68 1 54.3688 72.3375 83.0035
69 2 56.3083 73.5635 84.7803
70 1 58.8574 72.7919 85.6789
71 1 52.7226 77.1964 85.0062
72 3 44.3343 55.2664 89.9371
73 1 45.6341 56.165 87.745
74 4 48.3938 56.7052 85.8493
75 1 47.1359 55.3455 90.1307
76 4 49.1832 54.8364 87.9157
77 5 50.0464 55.9746 90.3929
78 1 52.1258 54.5971 88.8099
79 1 54.8692 54.9198 90.0044
80 2 53.6021 56.3197 87.2238
81 4 57.1648 53.2358 90.8446
82 1 58.1152 55.9462 89.6815
83 1 38.1265 61.0625 90.7697
84 1 40.1187 61.728 88.691
85 2 43.9054 58.1452 86.6963
86 2 40.6919 59.2275 89.7463
87 1 41.8256 59.7827 87.2082
88 1 42.9488 57.5494 89.2999
89 1 43.2178 60.7369 89.788
90 3 40.8019 57.0045 90.8609
91 1 45.6048 58.7751 89.0612
92 1 44.7054 60.857 87.1329
93 2 49.8457 58.8385 86.0719
94 1 48.2894 57.7259 88.6509
95 2 46.3697 58.4039 86.396
96 1 47.7904 60.3985 87.3902
97 3 45.9771 61.4568 89.4212
98 2 47.896 60.094 90.1488
99 1 50.2428 58.8881 90.8649
100 1 54.7429 61.7248 85.9935
101 1 51.0716 57.2415 87.9046
102 1 53.4189 59.3327 87.7196
103 1 50.7056 60.3011 88.2525
104 3 52.2532 62.0281 86.9555
105 1 53.0484 57.441 90.0988
106 2 52.5514 60.3038 90.4549
107 1 55.2445 59.6552 90.5644
108 1 54.32 61.9726 88.9332
109 1 55.7693 57.3923 88.3666
110 2 58.0235 58.1874 87.0562
111 1 58.296 58.9385 89.7655
112 2 56.199 60.0364 87.8159
113 1 59.3962 60.6446 87.3042
114 1 57.4502 61.7202 89.6899
115 1 60.4024 61.5702 89.9675
116 2 56.084 57.1428 91.0194
117 1 60.8282 57.324 91.121
118 3 60.9106 59.0517 88.9988
119 1 62.6424 59.712 91.0854
120 1 40.1624 63.311 86.2948
121 1 37.6675 63.537 88.8693
122 3 40.1997 64.5052 88.6751
123 1 38.4384 66.4512 89.1784
124 1 40.3518 66.4033 86.6563
125 1 44.7511 63.5702 85.9213
126 1 44.1636 66.3824 86.0916
127 1 42.1277 63.5331 90.2473
128 3 42.5118 62.4636 87.5977
129 1 44.6317 63.6851 88.8472
130 2 42.4058 64.8986 87.5691
131 1 41.4226 66.5451 89.9979
132 2 43.9772 66.2626 88.9573
133 1 48.8141 65.5877 86.2165
134 1 47.2621 63.2712 87.6737
135 2 49.0812 62.1019 89.145
136 5 49.2362 64.9069 89.2538
137 3 49.9035 63.2595 87.1349
138 1 46.5103 65.7409 90.0992
139 3 46.2355 65.6379 87.462
140 1 47.4696 62.973 91.0344
141 3 55.5228 66.3423 86.5136
142 1 53.6234 64.4776 87.3017
143 1 51.6167 63.2738 89.1501
144 3 53.9125 64.5834 90.2238
145 3 51.127 65.476 87.2863
146 3 52.2131 66.0326 89.2587
147 1 54.8537 66.9653 88.965
148 2 55.5556 62.895 91.1233
149 2 56.0436 64.0354 85.9389
150 1 58.1927 65.4098 86.6139
151 2 59.0413 63.3061 88.0905
152 2 57.1281 62.2305 87.0562
153 1 56.2722 64.3039 88.6917
154 3 60.1663 65.4385 88.3662
155 1 58.7188 64.3962 90.5122
156 1 57.8639 66.9037 89.1215
157 2 63.2819 62.3173 89.7998
158 1 61.6043 63.0334 87.5269
159 1 62.7787 66.0066 88.1453
160 3 61.3606 64.0941 89.978
161 1 61.0353 66.9659 90.3518
162 1 63.6608 64.9522 90.927
163 3 39.8261 68.6141 88.1742
164 1 38.0884 70.401 89.4248
165 1 36.9274 68.1525 91.0768
166 1 40.3194 71.6188 91.0324
167 2 39.6225 68.5937 90.5483
168 2 44.5734 68.9433 85.8215
169 2 42.6098 70.4559 86.1214
170 1 45.2591 71.3663 86.0986
171 1 42.462 68.2667 87.6713
172 1 43.8357 70.8843 88.7855
173 1 40.6536 71.2776 87.9517
174 2 41.6737 69.6653 89.8106
175 1 43.7848 68.3642 90.8444
176 1 45.5133 68.4021 88.34
177 5 46.845 67.5876 85.9288
178 1 49.5971 71.1611 86.2239
179 3 48.0915 67.1458 88.4133
180 1 47.5574 68.9595 90.3728
181 2 47.8539 69.4353 87.319
182 5 50.1405 68.0231 87.0439
183 1 49.8164 70.2708 89.0346
184 1 46.8285 71.4957 88.5548
185 2 47.8565 71.8083 90.8576
186 1 50.1902 67.5145 90.309
187 1 52.8717 67.2176 86.1241
188 2 52.1624 70.3759 86.7621
189 1 54.5175 72.0295 86.1404
190 1 52.4561 68.6855 88.7514
191 5 54.7871 69.2658 87.0226
192 1 55.1015 71.6138 89.0071
193 1 52.2533 71.7011 89.6203
194 3 54.2461 69.5976 90.4422
195 1 57.333 68.2085 86.186
196 1 59.2667 69.4846 89.6856
197 2 56.4668 69.1688 88.9691
198 1 57.4877 70.922 87.3357
199 2 57.3104 71.1935 90.457
200 5 59.9782 67.8551 87.365
201 2 60.2293 70.7719 87.5465
202 1 64.1824 67.8464 90.4168
203 1 62.3079 69.1754 88.4879
204 1 61.7703 71.904 89.7465
205 5 64.2643 70.8005 90.8544
206 2 38.8718 73.2038 89.4166
207 1 40.3524 75.3305 90.4111
208 4 42.9988 75.4453 86.1729
209 1 40.6171 74.2412 87.46
210 1 42.4066 73.3965 89.6019
211 3 42.8456 72.7487 87.0026
212 1 45.1232 73.8748 87.7028
213 4 42.5628 76.549 88.7452
214 3 44.9239 75.6309 89.6049
215 1 44.999 73.1506 90.9035
216 1 45.3837 76.9001 87.2654
217 5 47.9416 75.418 86.9178
218 2 47.4997 72.9222 86.2482
219 1 47.4491 74.371 89.7193
220 1 49.6147 73.211 88.3078
221 2 49.647 76.2888 88.7346
222 4 55.4125 75.8935 85.8133
223 3 52.0019 72.806 87.1357
224 1 54.1603 74.3183 88.0128
225 5 51.7588 74.6821 89.5613
226 1 51.3174 75.393 86.8387
227 4 53.5333 77.029 87.8162
228 3 53.8866 73.511 90.6354
229 2 54.1539 75.9398 90.3306
230 2 56.716 73.5816 87.4097
231 1 58.9833 72.9094 89.0248
232 4 58.7961 75.3382 87.272
233 1 58.7402 76.1571 90.1483
234 4 56.2857 76.6482 88.4914
235 1 56.4881 74.1345 90.215
236 4 61.5132 72.9139 86.939
237 1 61.3097 74.8647 89.1516
238 5 44.7046 78.2576 90.3543
239 5 47.1878 77.1712 89.4365
240 2 49.3434 78.7413 89.6079
241 1 48.0185 78.4178 87.0684
242 4 46.697 80.049 89.0881
243 5 48.9332 81.2932 90.4758
244 1 54.5079 78.7449 89.8844
245 1 50.9735 78.4446 87.4194
246 1 51.7313 80.4094 89.6916
247 1 51.8318 77.4612 90.3107
248 4 53.5426 79.6861 87.2541
249 4 57.8031 78.8582 90.5884
250 3 42.9838 56.1378 91.9039
251 1 42.9971 54.8797 94.3143
252 1 45.6081 53.6813 95.2239
253 3 44.6454 56.0261 96.3283
254 1 45.4451 54.8606 92.4546
255 1 40.7102 56.566 93.4713
256 4 50.6931 53.1551 91.7384
257 4 48.2912 52.9193 94.1179
258 4 48.9144 55.1454 92.7335
259 4 47.152 56.0945 94.5694
260 2 49.6701 55.5853 95.2963
261 1 50.288 53.1068 96.2342
262 2 52.3271 55.0556 91.378
263 1 51.8452 54.5748 94.1018
264 2 54.0511 56.3742 92.3622
265 1 53.9664 52.9586 95.5679
266 1 53.9934 53.261 92.4986
267 3 51.8359 51.9594 94.1138
268 1 54.3457 56.1022 94.9431
269 1 56.3668 55.077 92.8444
270 4 56.5012 52.4196 94.0255
271 4 58.9843 53.768 94.8484
272 1 59.2821 54.9264 92.2239
273 2 57.784 56.4889 94.583
274 1 56.4516 54.5323 96.1853
275 1 60.6321 56.7205 94.2436
276 3 36.7084 59.7919 95.745
277 1 39.6266 59.1528 92.4273
278 1 38.9828 58.2123 95.3132
279 1 38.9386 61.302 95.7092
280 3 37.6865 60.7367 93.4378
281 3 39.9595 61.8531 93.242
282 1 42.6191 58.7976 92.1354
283 3 45.0429 57.292 91.1665
284 3 40.8866 61.2287 91.163
285 1 45.4739 59.9604 91.7468
286 2 42.4327 57.3838 95.313
287 2 44.2159 59.9945 94.2611
288 1 41.445 59.904 94.7916
289 1 44.7279 57.4111 93.8933
290 1 42.7674 61.8362 92.8582
291 2 43.3629 61.7145 95.8045
292 1 50.3257 61.7938 91.4401
293 1 49.0848 58.2987 94.5217
294 1 47.5814 57.7556 91.9085
295 2 46.6526 59.3338 94.295
296 3 48.2277 60.4433 92.546
297 1 48.8605 61.2135 94.9965
298 1 45.9923 60.9938 96.4216
299 1 46.073 62.0071 93.6356
300 1 51.325 57.105 92.8703
301 2 53.3837 58.8045 92.4905
302 1 53.9113 59.3061 95.4735
303 1 51.7002 57.38 95.8397
304 1 51.409 60.1124 93.6886
305 1 54.3617 61.2822 93.1069
306 3 52.9838 61.7662 95.3759
307 1 55.8465 58.2396 93.4328
308 4 58.3392 57.6732 92.3104
309 1 58.7984 59.2168 94.7036
310 3 56.2763 60.3599 94.9388
311 1 57.3859 60.723 92.4884
312 2 59.9955 59.8552 92.0745
313 3 60.1915 61.494 94.1057
314 2 63.1033 57.5165 92.8681
315 2 63.0558 57.708 95.8168
316 1 61.8086 59.5016 94.1458
317 1 64.4487 60.5108 93.4269
318 1 39.3664 63.7242 91.1817
319 5 35.9049 65.2149 94.429
320 1 36.1078 62.3412 94.8857
321 3 36.789 62.8802 92.2097
322 1 38.4821 64.005 93.9426
323 2 37.0477 65.3584 91.6204
324 1 39.9496 66.2516 95.0839
325 1 39.449 66.5841 92.2307
326 2 44.77 62.8301 91.3739
327 1 43.9064 65.4487 91.6818
328 1 41.1781 63.2285 95.3532
329 2 41.4069 64.3379 92.8611
330 1 43.9536 64.0835 94.3613
331 3 44.2876 66.8584 94.2327
332 2 42.0758 66.6626 93.2459
333 2 48.6222 65.948 91.8448
334 1 49.1208 63.6607 93.4752
335 2 47.1517 63.4494 95.5251
336 5 46.4635 64.8503 93.1572
337 1 48.7275 66.3794 94.5703
338 1 45.9496 65.7514 96.0293
339 3 52.9671 62.5789 91.3168
340 1 51.2251 64.8664 91.5956
341 2 51.734 62.7588 93.5384
342 1 53.8335 64.3945 93.1564
343 1 50.9452 63.2907 96.1107
344 2 53.3784 64.3809 95.9522
345 2 55.2214 62.6558 95.4736
346 3 51.3394 65.1338 94.2841
347 2 53.3224 66.6146 94.784
348 1 56.1474 65.5861 91.602
349 2 58.6039 66.9436 91.6802
350 2 59.2341 62.5953 92.2982
351 2 56.407 63.1702 93.3144
352 1 58.0007 62.2481 95.3441
353 1 58.3804 64.835 93.6207
354 1 55.8433 65.2896 95.1697
355 2 59.5381 66.501 95.7527
356 1 60.5882 63.9013 95.2631
357 1 62.0713 62.3259 92.3044
358 2 62.7043 62.0828 94.866
359 4 60.9431 64.9398 92.3897
360 1 63.2521 64.5589 93.9844
361 1 65.3667 62.8486 95.2896
362 3 64.8449 63.021 92.4729
363 2 65.0095 65.5962 95.7494
364 1 62.3009 66.5798 95.93
365 1 65.6117 66.0052 93.0307
366 1 37.4146 72.0959 91.8893
367 1 37.3215 67.6696 94.0424
368 2 39.6354 68.9447 94.4828
369 2 38.5884 69.7507 92.4525
370 1 37.3585 70.6244 95.2459
371 2 35.9956 69.9682 92.967
372 1 39.7182 71.7564 93.9317
373 2 35.7883 68.403 96.21
374 3 43.0494 71.2093 91.5812
375 2 45.4792 70.5121 91.1683
376 1 44.3133 69.5686 93.6245
377 1 42.1261 68.4181 95.3275
378 1 41.3756 69.1429 92.4686
379 3 42.232 71.0518 94.1168
380 4 49.792 70.5299 91.8886
381 1 46.6958 68.4579 95.193
382 3 48.7415 68.3884 92.7988
383 1 46.1931 67.5483 92.4638
384 1 49.7064 69.2756 95.4064
385 2 45.7904 70.8733 95.6956
386 1 47.279 70.6277 93.2748
387 1 53.3827 67.0867 91.4726
388 3 51.968 69.4928 91.2979
389 3 55.0981 67.2327 93.4322
390 1 51.2097 67.5555 93.289
391 1 53.9814 69.587 93.2031
392 2 52.5535 68.8097 95.5096
393 1 55.3586 69.0527 95.8306
394 3 51.453 70.1271 93.6438
395 3 55.1534 71.6133 91.7661
396 1 52.2981 71.4867 95.7323
397 1 56.4647 68.7414 91.537
398 4 60.4212 67.2114 93.4923
399 1 57.488 67.5468 94.1738
400 4 59.1276 69.3987 92.6379
401 4 58.9455 69.2691 95.5979
402 2 56.8182 70.2392 93.7738
403 2 59.6617 71.5227 91.4301
404 5 59.6722 71.6254 94.1835
405 1 57.6111 71.8091 96.0291
406 4 61.7169 69.4623 91.5733
407 3 65.6313 68.7037 92.56
408 5 63.059 67.3233 92.9748
409 1 61.6507 69.4195 94.7971
410 3 63.747 69.938 93.3043
411 1 64.7044 68.2761 95.2032
412 1 62.099 72.0067 92.8935
413 1 63.8877 71.162 95.8565
414 1 37.3638 73.6181 94.5624
415 3 39.2166 74.0221 92.4349
416 2 39.9248 74.4803 94.8488
417 2 39.0899 72.6934 96.437
418 1 39.7543 76.9067 96.0152
419 1 43.2232 75.8957 91.6143
420 1 41.9095 73.512 92.7066
421 5 43.2367 75.4706 94.6383
422 1 44.6298 72.6155 93.819
423 1 42.0078 73.1207 95.7325
424 1 40.7008 76.4445 93.204
425 1 50.026 73.3566 91.4714
426 1 46.2185 76.0366 91.9574
427 1 49.2984 76.2848 91.428
428 2 50.0987 72.1649 94.0866
429 5 47.3049 73.4937 92.7574
430 1 47.8656 72.451 95.5618
431 1 49.2936 74.8331 94.2759
432 1 46.2237 75.3292 94.8847
433 1 54.9909 72.1431 94.5621
434 1 52.5997 72.276 92.5918
435 1 54.9397 74.5823 92.808
436 1 52.3566 74.5293 94.6763
437 2 52.058 75.1673 92.0842
438 2 54.7813 75.8568 95.3276
439 1 50.9867 77.1339 93.9022
440 2 56.2008 76.9454 91.3581
441 1 60.0814 74.0758 91.7618
442 1 57.4494 72.6527 92.7231
443 1 59.3637 74.5846 94.5479
444 3 56.7314 74.2857 94.8316
445 3 57.6063 75.2794 92.547
446 2 59.7097 76.8489 95.7861
447 5 63.2748 74.0444 91.29
448 2 61.6097 76.3386 91.594
449 3 62.0062 74.6574 93.6599
450 4 61.5686 72.9342 95.6343
451 3 63.8857 73.9675 95.2368
452 1 64.898 72.3532 93.2891
453 2 61.7402 77.0536 94.2659
454 4 44.708 77.7018 93.6265
455 1 42.2908 78.3597 95.0384
456 4 42.4408 78.7239 92.0825
457 3 43.9831 80.2576 93.9657
458 1 47.3666 78.9318 91.7116
459 2 48.075 77.2031 93.6806
460 1 47.775 77.6267 96.3073
461 4 45.6503 81.0817 92.056
462 5 46.5645 79.4369 94.4075
463 2 49.2697 79.2174 94.5808
464 4 45.9163 82.062 95.1261
465 1 48.3981 81.4635 93.3999
466 1 50.255 79.2984 92.1315
467 1 50.6957 81.6254 95.3893
468 1 53.7567 77.261 92.7856
469 1 52.8843 77.6285 96.0959
470 3 51.9463 79.5638 94.3209
471 3 54.3893 79.1398 94.4634
472 3 52.8934 79.6108 91.9805
473 2 51.065 81.8375 92.3947
474 1 53.5003 81.6293 93.6168
475 1 53.4847 80.7631 96.442
476 1 55.616 79.8878 92.267
477 1 56.5996 77.4017 94.0079
478 1 59.3626 77.2492 92.963
479 3 58.0881 79.6499 93.2129
480 1 56.2585 81.0058 94.99
481 1 58.5035 79.1564 95.7804
482 1 40.5813 55.8337 96.5012
483 1 42.8567 53.8514 97.0394
484 1 43.7238 54.2076 100.096
485 3 41.1168 54.6141 98.9859
486 2 41.6944 55.9662 101.071
487 1 42.9279 56.5757 98.3105
488 2 45.3368 53.9138 97.8586
489 1 47.4774 52.1213 96.9768
490 1 46.8176 52.936 99.8201
491 1 47.7728 55.0082 97.2057
492 3 48.3302 55.2628 99.9309
493 3 49.249 53.0125 98.8221
494 1 45.8367 56.2137 99.1108
495 2 50.5925 55.9053 101.154
496 1 50.5219 55.2886 98.3886
497 4 55.6918 52.002 97.8436
498 2 52.5662 54.9112 96.7994
499 1 53.8349 52.6635 100.52
500 4 52.3811 52.4405 98.0663
501 3 51.1721 53.4288 100.282
502 3 54.5951 54.291 98.1651
503 1 53.0568 55.4176 100.034
504 1 55.7274 56.6083 100.9
505 1 54.1082 56.9583 97.8059
506 1 59.0931 55.9255 96.864
507 1 56.4375 53.8084 100.162
508 4 58.4154 53.301 98.0115
509 1 58.9081 55.4302 100.186
510 2 56.6493 55.9865 98.4373
511 3 60.9742 56.5494 98.6645
512 1 38.42 59.4372 97.9981
513 1 36.4004 61.6791 97.8254
514 1 39.8761 57.0997 99.2357
515 2 37.7853 58.6482 100.593
516 1 39.7358 60.5594 100.403
517 3 37.4959 61.9895 100.436
518 1 43.7273 59.0711 96.817
519 3 41.0189 58.5371 97.2237
520 1 42.2021 58.9952 99.8131
521 1 44.0075 57.2208 101.492
522 2 44.8935 58.6936 99.2825
523 1 44.9424 60.239 101.779
524 1 41.3801 61.1882 97.7404
525 2 43.9494 61.0567 98.6777
526 1 42.4382 61.7429 101.024
527 1 46.5246 57.9718 96.7613
528 2 49.2488 57.3407 97.0432
529 1 48.3884 57.8692 99.5227
530 2 48.5638 59.6808 97.2735
531 1 46.745 60.5378 99.2106
532 3 46.4575 57.9453 101.295
533 2 49.8007 60.3156 99.4594
534 1 48.0748 60.1151 101.719
535 1 51.3288 58.0553 98.7589
536 2 53.5428 59.6365 98.0886
537 3 53.4055 58.1586 100.358
538 1 51.1536 60.3245 96.8504
539 1 52.433 60.7535 100.292
540 2 55.0404 61.6349 100.046
541 1 50.7384 58.6195 101.582
542 5 55.7327 58.8591 99.2367
543 1 56.6091 58.0328 96.4888
544 5 60.6265 58.3936 96.7824
545 1 58.4862 58.004 98.9282
546 3 58.4547 60.0791 97.2281
547 3 57.9561 57.9438 101.538
548 1 57.6107 60.5446 100.479
549 1 55.9804 61.0562 97.4957
550 1 60.4222 60.1165 99.3591
551 1 60.8056 57.6035 101.128
552 1 63.9085 60.3617 96.5227
553 1 60.9202 61.2359 96.6747
554 1 62.8424 58.5153 98.6496
555 3 62.6911 59.5969 101.09
556 2 62.9622 61.2572 98.9532
557 1 61.4484 61.918 101.44
558 1 64.3622 61.7728 101.266
559 3 35.5215 64.1953 96.9345
560 2 37.9011 63.636 96.4776
561 1 40.0099 64.6476 97.6218
562 1 37.4263 66.2663 96.8968
563 2 38.9695 62.2079 98.2891
564 1 37.1892 64.3339 99.1651
565 2 40.2018 65.9199 101.67
566 2 39.0461 66.4407 99.4191
567 1 40.0076 63.5973 100.329
568 1 42.7075 65.7169 96.497
569 2 42.416 63.5717 98.5642
570 2 43.0028 64.3692 100.929
571 5 44.6691 63.448 97.2177
572 1 41.7518 66.1709 99.533
573 1 44.6241 66.1348 98.8232
574 1 45.1616 63.0043 100.033
575 4 48.4213 62.292 97.5803
576 1 48.7256 62.7282 100.303
577 4 47.0195 64.549 98.5648
578 4 48.8651 64.8315 96.8193
579 1 49.9914 65.5971 99.2655
580 4 47.782 65.4432 100.917
581 1 51.2108 66.641 96.5464
582 1 53.3627 62.3746 97.9411
583 3 50.8078 62.4791 98.6317
584 1 51.6733 63.7226 100.763
585 3 54.1862 64.0915 100.194
586 2 52.4413 64.8152 98.3002
587 1 52.6062 67.0199 99.9845
588 1 54.1889 66.7574 97.4354
589 1 55.7571 64.1573 97.9469
590 1 55.6374 66.3025 100.403
591 3 58.1294 64.6087 96.5368
592 3 59.6635 63.9768 100.476
593 1 56.9371 63.457 100.678
594 1 58.5289 62.5813 98.3305
595 3 58.0002 65.3082 99.1153
596 1 57.2631 67.0649 97.2505
597 1 60.4015 65.1006 98.0379
598 1 63.0033 63.7039 97.0992
599 3 61.0852 62.7267 98.8775
600 1 62.8657 64.2339 100.127
601 1 65.3173 62.4804 98.4347
602 4 65.8834 64.3284 100.929
603 1 60.8821 66.5708 100.665
604 2 62.7038 66.6985 98.5842
605 1 64.0781 66.8673 101.032
606 1 65.11 65.5154 98.3918
607 3 38.4898 68.5774 96.6069
608 2 40.5103 67.385 97.3958
609 1 40.3876 70.4627 96.6163
610 2 36.84 67.5165 99.433
611 1 39.5378 69.1745 99.1316
612 2 37.5489 70.3599 100.892
613 1 36.8857 70.039 98.201
614 1 38.7517 68.0764 101.722
615 1 40.2952 71.0622 101.421
616 2 44.4459 67.9622 96.5685
617 1 43.4544 70.8137 96.6412
618 2 41.4572 68.4382 100.975
619 1 42.5954 68.75 98.49
620 2 44.2284 67.9657 100.826
621 1 43.2803 70.4745 100.845
622 5 41.6578 71.812 98.86
623 3 44.5501 71.9651 98.9665
624 1 45.5785 69.4954 98.4064
625 3 47.7599 70.1272 96.9421
626 1 47.9598 67.4731 97.7022
627 3 48.169 69.6408 99.2979
628 2 46.6146 67.5509 100.043
629 1 46.2263 70.082 101.242
630 1 49.0792 68.0411 101.125
631 1 50.1392 70.853 97.9211
632 1 48.8404 71.4029 101.192
633 2 50.4003 68.2202 98.557
634 2 50.9546 69.8535 100.308
635 1 52.8227 69.5406 98.0987
636 3 53.5842 69.5584 100.622
637 1 55.7646 68.9592 99.221
638 1 52.5306 71.9157 100.782
639 4 55.0954 71.2956 97.5851
640 1 60.227 68.0158 97.9425
641 3 58.1578 67.6419 99.7026
642 5 59.4076 69.7692 100.142
643 2 57.9174 69.7355 97.8576
644 1 57.8516 72.074 99.2557
645 1 55.9549 70.9463 101.39
646 1 60.664 70.9265 97.3544
647 3 62.6733 68.9499 97.2271
648 1 62.2505 69.168 100.071
649 4 64.9903 68.4263 98.1548
650 4 65.2134 69.5413 100.586
651 3 63.4126 70.8911 98.5314
652 1 63.7489 71.9043 101.084
653 3 36.6895 72.53 97.1511
654 1 38.8088 72.3024 99.0746
655 4 36.1189 72.5572 99.9418
656 4 40.5171 74.4574 97.6619
657 1 37.818 74.9744 97.3717
658 1 38.1813 74.8871 100.444
659 1 40.0111 76.9104 99.0341
660 4 42.4269 76.4782 97.1789
661 5 45.1416 73.3012 96.6361
662 3 40.7932 74.2758 100.182
663 1 43.2356 73.4355 101.071
664 4 43.012 74.0935 98.2153
665 1 42.9494 76.3773 100.066
666 4 45.0437 76.8591 97.2015
667 1 45.5478 74.7161 99.1511
668 1 50.3403 73.5311 96.8076
669 2 50.1436 76.3589 96.4949
670 1 47.3042 72.1716 98.5876
671 3 45.9716 72.7265 100.935
672 1 48.1264 74.3793 100.626
673 5 47.836 74.8326 97.3165
674 2 50.2758 72.9838 99.5321
675 3 50.0939 75.2841 98.8818
676 3 45.6731 77.108 100.137
677 1 48.1548 76.9626 99.216
678 1 50.2895 76.7098 101.464
679 4 54.0945 73.7144 96.7164
680 1 52.4603 74.8694 100.076
681 3 52.473 72.5377 98.2566
682 1 54.9673 73.2119 99.6344
683 2 52.2131 75.266 97.3853
684 1 54.5896 76.1147 98.2607
685 1 55.2784 75.6853 101.332
686 2 56.4549 73.7559 97.3259
687 1 59.409 73.9152 97.4538
688 3 59.3544 74.0697 100.759
689 5 57.3734 74.9752 99.3826
690 1 57.338 76.1716 96.6563
691 1 59.5053 76.8644 98.6731
692 3 56.9555 73.6136 101.685
693 3 58.0199 76.1378 101.552
694 1 60.7465 76.356 101.386
695 1 61.9242 75.6571 96.6414
696 1 61.0761 72.2229 99.8775
697 1 63.279 73.4274 98.0207
698 1 63.3595 74.9175 100.583
699 3 61.1496 74.7635 99.1841
700 3 62.2548 76.9649 99.0724
701 1 44.685 79.7295 96.5534
702 1 44.1078 79.1474 99.4193
703 2 41.8505 78.7674 101.0
704 4 41.6438 79.133 97.8549
705 3 44.7949 80.8077 101.424
706 4 50.4322 79.0565 96.7789
707 1 47.991 80.7059 96.6642
708 3 46.5389 78.8319 98.3137
709 3 46.657 79.2449 100.837
710 1 48.9308 79.6566 99.5269
711 1 46.2111 81.3172 99.0007
712 3 49.0114 82.1812 98.7522
713 2 47.6972 81.5675 101.295
714 3 50.3346 81.524 101.072
715 1 51.5329 77.5605 98.8326
716 3 51.234 79.181 100.893
717 2 53.8382 79.0492 98.5924
718 1 53.7424 78.0998 101.037
719 1 51.5499 80.8839 98.7053
720 5 53.0778 80.9954 101.37
721 3 54.1888 81.5098 99.0038
722 1 55.7052 78.5913 96.724
723 1 56.6284 77.7759 99.4997
724 2 58.4406 79.4978 98.4409
725 1 58.8993 78.8081 101.075
726 1 55.9801 80.2964 100.665
727 2 56.3848 80.9 97.8779
728 4 61.1538 78.6105 97.1083
729 5 45.0719 52.476 102.054
730 2 43.753 54.7397 105.382
731 3 43.8233 54.7377 102.766
732 1 42.3596 56.674 103.85
733 1 45.5481 56.601 104.131
734 1 49.0334 53.6661 101.911
735 1 46.3465 55.0779 101.8
736 3 45.7656 53.7645 104.214
737 3 47.8755 54.8899 104.216
738 2 49.0964 54.4018 106.492
739 1 46.3442 55.2497 106.553
740 1 50.5956 54.9631 104.09
741 1 48.5329 56.9218 102.644
742 2 52.3603 54.0933 102.378
743 3 53.5232 55.4439 104.951
744 1 51.4773 56.0557 106.674
745 1 55.0182 54.4641 102.85
746 1 55.4472 56.7364 106.73
747 1 53.0426 56.8706 102.682
748 5 57.8488 55.5133 102.88
749 3 57.9917 56.8607 105.466
750 3 37.8293 60.4193 102.455
751 1 40.1484 58.0172 102.156
752 1 40.3539 60.7456 103.298
753 1 38.1235 61.4715 105.02
754 2 40.4453 60.764 106.737
755 3 42.5076 59.2861 102.541
756 2 44.2107 58.964 104.323
757 1 43.8193 57.2375 106.578
758 5 41.558 58.947 105.246
759 1 42.9558 61.485 104.361
760 1 43.7319 60.1903 106.953
761 1 45.9467 61.2302 104.579
762 3 46.6787 58.845 103.603
763 1 46.4498 58.7694 106.392
764 1 48.7136 57.0134 105.787
765 1 49.1554 59.5426 104.356
766 2 50.5017 61.4861 102.089
767 4 50.5745 61.8848 105.431
768 1 54.9754 59.5955 101.981
769 2 50.943 57.5505 104.126
770 5 53.3942 58.0533 105.393
771 2 50.9793 58.7297 106.243
772 1 52.2419 60.0765 103.682
773 1 54.9953 60.5204 104.879
774 1 52.7391 60.4806 106.918
775 3 59.8021 59.8977 101.946
776 1 59.564 59.2529 105.919
777 2 59.4733 57.6284 103.553
778 1 55.8689 57.391 103.877
779 3 56.8962 58.9915 105.937
780 1 57.7615 59.7541 103.501
781 1 57.5754 61.8148 105.642
782 3 56.4077 61.9667 102.932
783 1 60.2165 61.7305 104.273
784 1 61.7308 59.3134 103.597
785 2 62.9109 61.916 103.824
786 3 38.8468 62.8047 102.55
787 1 37.6043 65.2866 101.908
788 4 36.3567 62.7319 102.794
789 2 40.5371 62.6989 105.153
790 1 38.2679 64.3724 104.709
791 4 40.1206 66.3361 104.168
792 1 45.2845 65.5025 101.813
793 1 42.6618 66.5521 102.548
794 2 44.3357 63.0517 102.726
795 1 41.3039 63.8336 102.992
796 4 41.1422 64.972 106.169
797 1 43.5365 64.606 104.81
798 4 44.9858 63.0649 106.633
799 1 44.4517 66.9181 106.702
800 3 44.9278 66.783 104.14
801 2 50.6804 66.0505 102.051
802 2 46.6977 62.5623 102.158
803 1 46.5721 64.5069 104.317
804 4 49.0822 64.1964 102.646
805 4 48.5548 62.1528 103.841
806 1 49.3721 64.6235 105.638
807 3 48.3221 66.461 103.293
808 3 47.6984 62.5521 106.19
809 3 53.0514 62.4412 105.13
810 4 51.3614 63.634 103.587
811 1 52.4809 65.2124 105.656
812 1 53.8119 62.4458 102.484
813 3 55.5289 64.4322 102.519
814 1 53.2808 65.7152 102.68
815 2 54.8111 66.2233 106.509
816 1 55.2779 63.7669 105.185
817 3 58.8486 62.2364 102.087
818 1 58.2577 66.1241 101.844
819 1 57.9004 64.1036 103.754
820 1 57.5955 65.7199 106.431
821 1 55.8774 66.5807 103.937
822 2 59.4753 63.8954 105.769
823 2 59.9854 66.0843 104.673
824 1 60.819 64.3829 102.829
825 5 63.8158 64.2945 102.954
826 1 62.088 64.1516 105.549
827 1 62.4339 66.8261 103.582
828 3 61.9494 66.8528 106.276
829 4 36.0413 68.1902 102.002
830 3 37.6826 67.155 104.139
831 1 37.7945 69.9491 103.843
832 1 39.4015 68.5362 106.04
833 1 39.7751 71.2765 107.074
834 2 39.9912 71.3282 104.253
835 2 42.3484 67.2675 105.154
836 1 40.9109 68.979 103.516
837 1 43.8956 69.1322 103.483
838 1 42.331 69.832 106.093
839 2 45.1061 69.3343 106.089
840 3 42.3321 71.3956 103.3
841 3 44.6458 71.7628 102.755
842 1 44.5866 71.8332 105.421
843 1 50.388 67.2529 104.696
844 2 46.472 67.8522 102.589
845 1 47.198 67.659 105.334
846 1 48.826 69.5843 103.641
847 3 46.2452 69.9816 103.944
848 1 47.4611 70.8865 106.099
849 2 49.4253 69.2324 106.894
850 3 54.7148 68.175 102.146
851 1 51.8323 68.4975 102.44
852 1 53.5492 68.0894 104.876
853 1 51.4023 70.218 105.332
854 3 50.9403 70.9425 102.718
855 1 53.7059 70.6881 103.205
856 1 54.4448 70.8626 106.05
857 2 57.3655 68.7297 101.915
858 1 60.1217 68.6204 102.737
859 1 58.8395 71.6795 102.149
860 1 59.6076 68.1376 106.325
861 1 56.5418 68.5724 106.423
862 2 58.1476 67.6004 104.181
863 3 55.9627 69.4496 103.932
864 1 58.401 70.2618 104.716
865 1 60.3583 71.1826 106.898
866 3 60.5008 71.745 104.212
867 2 56.9939 71.4298 106.849
868 2 63.3698 69.294 102.609
869 3 61.4501 70.8181 102.153
870 1 61.8857 69.4734 104.994
871 2 63.0988 71.7472 103.985
872 1 40.3178 76.5965 101.936
873 1 37.8958 72.6228 102.444
874 1 38.7989 73.4666 105.277
875 2 38.3503 75.3061 103.305
876 3 42.7538 75.9024 102.62
877 1 45.5074 75.2077 102.2
878 4 41.7432 72.6713 105.478
879 1 40.724 73.6938 102.781
880 5 43.4847 73.9044 103.93
881 5 43.2343 74.6548 106.924
882 1 41.0107 75.6332 104.979
883 4 43.8785 76.4962 104.94
884 2 49.544 72.2203 104.526
885 3 45.8014 74.5184 104.871
886 1 47.0466 72.4742 103.445
887 1 47.9593 73.9527 106.253
888 1 48.3805 75.0387 103.54
889 1 45.8159 76.2447 107.109
890 2 48.4726 76.5309 106.631
891 1 50.5969 73.6384 102.239
892 3 52.3517 72.6433 106.632
893 1 50.8446 74.5709 105.459
894 2 52.1027 72.5747 104.11
895 2 54.2799 73.3374 102.411
896 1 54.0744 73.8722 105.117
897 1 52.7005 75.5869 103.011
898 3 54.6886 76.271 105.731
899 3 52.3927 76.7224 105.282
900 1 56.3982 72.3468 104.095
901 3 58.5793 72.9096 105.609
902 1 59.0541 74.372 103.463
903 1 56.4513 75.4542 103.963
904 4 58.7723 75.822 106.205
905 1 56.4054 74.1946 106.913
906 1 61.6569 73.576 102.534
907 1 61.1653 73.7842 105.649
908 2 61.3705 76.0033 104.061
909 1 44.4982 78.1327 102.306
910 1 41.9804 78.2699 103.767
911 2 44.7693 78.9503 105.385
912 2 47.6245 77.2689 101.906
913 1 46.619 77.1768 104.38
914 1 49.8863 77.3236 104.447
915 1 49.1681 79.5444 102.631
916 1 48.0281 79.1703 105.921
917 1 46.4427 80.0799 103.453
918 2 50.714 79.875 105.511
919 3 54.4843 77.3892 103.638
920 1 52.1821 78.8857 103.44
921 1 53.7082 78.7693 106.164
922 1 54.9767 79.9911 103.499
923 2 56.5267 78.0081 102.363
924 1 56.5692 78.1616 105.349
925 1 58.9525 77.4463 103.713
926 3 48.1773 56.263 108.302
927 2 44.9097 59.3109 109.32
928 1 43.723 61.9941 109.513
929 3 45.8235 57.1237 108.43
930 1 47.7485 58.8009 109.467
931 1 49.0228 60.2459 107.252
932 1 46.4052 61.3608 111.072
933 1 46.439 61.2936 108.175
934 3 50.0555 57.8001 108.267
935 3 48.8415 61.3445 109.891
936 3 55.3944 61.8211 107.252
937 1 53.0127 57.8732 108.383
938 1 51.1072 59.9341 109.494
939 1 54.0637 60.938 109.552
940 2 55.1415 59.3459 107.552
941 1 60.3552 61.911 107.287
942 1 57.6311 60.4127 108.158
943 1 39.1038 63.1747 107.37
944 2 38.8951 65.9681 107.111
945 4 42.1917 62.6786 107.145
946 1 41.0435 64.5372 109.211
947 5 43.6428 64.8103 108.283
948 2 43.6274 64.3179 111.079
949 1 43.0662 66.889 110.272
950 3 45.4728 66.6711 109.154
951 3 49.0164 66.769 107.169
952 1 45.9972 66.3062 111.709
953 5 46.7604 65.2806 107.132
954 1 48.5431 63.748 111.437
955 1 46.0167 64.0109 109.734
956 1 48.6883 63.5323 108.447
957 3 48.7176 66.3943 112.293
958 1 48.2371 66.2864 109.614
959 2 50.8813 64.9576 108.007
960 3 50.7842 62.1362 107.88
961 1 51.3661 62.8857 110.313
962 1 53.1574 63.2309 107.771
963 4 54.3288 63.7606 110.709
964 1 50.975 65.8419 110.665
965 1 53.3731 65.8795 108.92
966 4 55.7 64.3045 108.089
967 4 55.0141 66.6497 111.392
968 1 60.247 65.3586 107.85
969 2 58.0802 63.2873 107.821
970 3 56.4486 62.3706 109.599
971 1 57.7904 65.1321 109.756
972 1 41.4901 67.2122 107.803
973 3 41.3369 69.7238 108.748
974 2 43.6769 68.8547 108.344
975 1 42.5952 72.0805 108.187
976 1 45.1027 69.0902 110.651
977 1 45.2666 70.9853 108.327
978 1 49.9636 72.0476 107.387
979 1 46.9945 68.5759 108.174
980 1 48.012 68.8922 111.21
981 3 48.6907 70.395 109.037
982 1 46.9548 71.7049 110.724
983 1 50.6861 70.8773 110.736
984 2 50.1258 68.3682 109.474
985 1 51.5332 67.5882 107.4
986 1 50.7276 68.2974 112.272
987 3 53.9783 68.3879 107.495
988 3 52.774 70.0855 112.42
989 1 52.9951 68.4631 110.273
990 1 52.2846 70.4502 108.249
991 1 53.7805 71.7939 110.599
992 3 55.178 69.5697 111.522
993 1 55.4138 70.0038 108.905
994 1 58.4035 69.9663 108.684
995 3 58.48 67.3227 108.522
996 2 57.3178 68.3368 110.645
997 5 55.9164 67.1134 108.829
998 2 60.9432 68.4458 108.539
999 3 40.5788 73.9813 107.341
1000 2 45.532 73.4886 107.234
1001 2 44.7589 73.4143 109.619
1002 3 47.4884 72.3355 108.27
1003 3 49.2434 72.9445 109.906
1004 1 47.2058 74.707 109.212
1005 1 50.0522 75.0171 108.367
1006 1 53.0178 75.2791 107.61
1007 2 51.8906 73.1251 109.159
1008 4 54.7832 74.6335 109.838
1009 2 54.3774 72.694 108.027
1010 1 55.6082 76.9076 107.986