# LAMMPS data file written by OVITO Pro 3.7.7
1742 atoms
5 atom types
0.0 250.0 xlo xhi
0.0 90.51 ylo yhi
0.0 181.02 zlo zhi

Atoms  # atomic

1 2 49.3764 25.7869 88.9508
2 2 57.0517 26.1897 87.9608
3 3 45.4428 30.5566 87.8578
4 3 48.2571 27.743 87.7349
5 1 50.148 29.705 87.0419
6 2 52.3108 30.5006 85.6743
7 1 53.0466 28.6305 87.6997
8 2 54.6901 29.4381 85.4389
9 3 54.4913 26.2892 87.4357
10 1 56.1456 28.7938 87.6163
11 2 59.2384 27.474 88.8423
12 1 58.9956 29.9802 87.7067
13 1 45.6351 33.7361 87.3643
14 1 47.822 31.536 87.0281
15 1 43.3705 32.059 88.8525
16 5 48.3778 34.4261 86.0737
17 4 50.0744 32.3529 85.104
18 5 48.8789 33.6082 88.741
19 5 51.3121 32.4394 87.4689
20 1 51.5249 34.9571 88.935
21 1 51.2417 35.3878 85.9591
22 3 56.9156 31.0065 86.1323
23 2 56.9485 31.3779 88.6419
24 4 53.0566 32.947 84.9134
25 1 54.4005 31.5214 87.1884
26 1 53.8916 34.5437 87.2759
27 1 56.5534 33.6997 86.5925
28 3 58.3478 35.6496 87.2013
29 3 58.9248 32.6186 87.048
30 5 61.006 32.3113 88.6498
31 2 60.5764 34.8652 87.8738
32 1 42.5901 37.9635 88.5999
33 2 44.4732 36.0878 88.2816
34 1 45.003 39.241 87.1269
35 1 46.5779 36.6852 86.6953
36 1 48.2111 39.1318 87.6118
37 1 49.9452 40.2408 85.5781
38 2 49.2841 37.4294 85.5271
39 1 49.1762 36.4715 88.1616
40 1 51.4374 38.3312 87.5206
41 1 51.9965 38.0919 84.6749
42 1 53.897 35.7059 84.4482
43 2 53.7078 37.1735 86.6038
44 1 57.0059 39.777 86.0058
45 2 54.0261 39.5955 85.9927
46 2 53.3175 36.9373 88.9003
47 1 55.2679 38.6966 88.2854
48 1 56.2746 36.822 85.8945
49 1 56.1605 35.933 88.8834
50 1 59.8747 37.8445 86.5264
51 3 57.7149 37.9884 87.8731
52 1 60.7637 39.7023 88.8743
53 3 62.1798 39.3643 86.719
54 1 63.6679 39.345 89.1552
55 5 62.2616 37.0183 88.193
56 2 46.5782 40.527 89.1382
57 1 47.0462 41.5034 86.4561
58 1 44.4942 42.0765 88.0957
59 1 47.2066 43.3186 88.821
60 2 49.348 41.6715 88.0675
61 1 52.1173 41.3339 87.217
62 1 50.4635 44.2109 87.9111
63 2 53.1637 43.5834 88.4142
64 1 55.5016 44.4428 87.1914
65 1 55.1354 41.6138 87.88
66 3 59.6081 40.5654 86.5433
67 3 57.5446 42.4203 86.8103
68 3 59.7093 42.5482 88.1432
69 1 57.9837 40.4706 88.7843
70 4 62.3722 42.0571 88.6918
71 4 47.384 46.1971 89.0561
72 1 50.2495 46.9756 89.1082
73 1 53.0041 46.2321 88.0979
74 4 52.7511 49.2726 88.899
75 4 55.4009 47.9435 88.8253
76 4 57.7243 46.0532 88.5345
77 1 58.3478 20.9894 93.8503
78 1 43.7501 24.5917 93.1307
79 1 46.4918 23.2753 93.1136
80 2 46.0393 25.7185 92.06
81 1 47.7381 24.2762 90.458
82 1 50.6555 23.4853 90.4607
83 1 49.1386 22.1105 92.8091
84 1 51.109 24.2235 93.3642
85 3 48.6343 24.9453 92.7556
86 3 50.4531 25.9629 91.2638
87 5 52.0668 21.5949 92.4041
88 1 52.3917 25.7574 89.2529
89 3 53.2289 23.7764 91.402
90 1 55.2677 24.0375 89.6321
91 1 55.2112 21.9884 92.1437
92 4 55.6821 24.9914 92.2674
93 2 56.9031 23.4386 93.8865
94 1 57.9212 25.6747 90.4993
95 1 58.1096 22.9728 91.5863
96 3 58.7802 25.2616 93.2958
97 1 60.7061 24.7087 91.4529
98 1 63.1461 23.925 93.3628
99 3 63.1477 25.95 91.5946
100 1 40.1555 30.1886 92.4994
101 1 41.6786 27.7174 92.4608
102 3 42.1944 30.1234 90.815
103 1 46.2069 26.7821 89.4968
104 2 43.9886 26.9509 91.3513
105 1 47.4732 29.4973 89.5171
106 2 45.8689 28.213 92.51
107 1 46.4457 30.8111 92.3601
108 1 44.6198 29.4271 90.2472
109 1 43.6497 29.9074 93.1849
110 1 50.3946 28.2396 89.5201
111 3 48.1172 28.8556 93.6433
112 1 48.2502 27.3336 91.4753
113 3 51.9084 30.5227 89.2915
114 1 50.062 26.9377 93.8995
115 3 51.1137 28.2737 92.0446
116 1 49.3972 30.3208 91.7636
117 1 52.4425 30.5097 92.1059
118 1 55.1739 26.9451 89.9119
119 1 52.9294 26.2702 92.1712
120 2 52.9256 28.361 90.401
121 1 54.62 30.4148 89.8877
122 1 54.949 28.5349 92.3018
123 2 57.1077 27.0904 92.7968
124 1 57.4383 28.9247 90.2834
125 4 57.6839 29.7566 93.0903
126 1 59.6527 27.6416 91.8981
127 4 60.3691 30.2391 92.5236
128 1 61.159 29.5311 89.6987
129 3 61.4455 26.8845 90.0272
130 1 61.4084 26.5031 93.9006
131 3 64.0893 26.4616 93.8083
132 1 62.693 28.5418 92.0533
133 2 65.5174 28.1656 92.6846
134 1 64.5103 30.845 92.4354
135 4 39.9595 35.4152 91.5051
136 1 42.0496 35.0941 89.2332
137 4 38.9214 32.9026 92.8942
138 4 42.0328 32.3131 93.5048
139 5 42.6702 34.7475 92.0192
140 1 41.1902 32.6208 90.7881
141 3 44.4076 34.1788 90.0351
142 1 46.3415 32.2727 89.8047
143 1 46.8196 35.3684 89.7119
144 3 43.9524 32.0353 91.4867
145 1 45.4514 34.0493 92.5262
146 2 49.48 31.1765 89.2273
147 1 51.039 32.745 90.7362
148 2 49.4371 35.5096 90.7213
149 1 48.3207 33.2773 91.8359
150 2 50.007 35.3876 93.0521
151 1 52.4773 34.9458 92.0734
152 1 50.7955 32.6791 93.725
153 1 54.9709 30.9347 93.8069
154 3 53.1874 32.6692 89.2663
155 3 55.5326 33.2142 89.2437
156 3 53.9543 34.8615 89.988
157 3 53.9173 32.6243 91.6267
158 1 55.8256 34.4681 91.7586
159 4 56.5748 31.7179 91.4065
160 1 58.1859 33.8753 89.3125
161 4 59.0733 31.3435 90.4213
162 4 58.6832 33.3582 92.195
163 4 60.6027 34.2394 93.763
164 4 60.4823 34.7124 90.7692
165 1 61.8946 32.3622 91.5767
166 4 57.7843 35.5489 93.8606
167 4 63.6877 31.3075 89.5817
168 1 62.9693 34.4483 89.4103
169 3 66.5161 34.5074 90.6488
170 2 64.4519 33.4423 91.3569
171 1 66.5351 32.846 93.1723
172 3 65.2828 35.5348 92.5071
173 1 63.5625 33.5721 93.8878
174 1 67.9483 35.3493 92.7804
175 4 37.5646 39.0689 93.6231
176 2 39.98 37.5277 89.7294
177 1 41.2592 39.854 90.6071
178 3 39.9527 38.3932 92.3618
179 3 41.9282 37.2169 91.1174
180 1 41.733 36.9646 93.7551
181 3 41.6117 40.3802 93.1752
182 4 38.7168 36.4352 93.7117
183 3 43.2946 38.8249 92.3651
184 1 44.1701 39.8695 90.1116
185 2 46.0948 37.9784 89.2155
186 1 44.4969 36.7955 91.0111
187 1 47.3102 36.3637 92.5499
188 1 46.1296 39.2967 92.2346
189 2 44.5714 36.9843 93.7248
190 3 50.2985 39.7929 89.3639
191 1 51.3465 37.4394 90.6439
192 1 48.394 38.3094 90.5098
193 2 49.566 37.9365 92.8489
194 1 52.1961 37.4467 93.578
195 1 51.0428 40.0316 92.0273
196 1 48.701 40.4057 93.8383
197 1 53.1006 39.8737 89.7613
198 3 57.1305 38.1626 90.2566
199 1 54.5781 37.3169 91.1762
200 5 54.8573 36.202 93.9091
201 2 53.7187 39.5216 92.4714
202 1 56.7592 38.2146 92.9644
203 3 57.8228 36.0616 91.2448
204 1 59.2554 39.4718 91.4213
205 1 59.5253 36.9819 89.4399
206 1 59.9923 36.9708 92.6912
207 3 61.7924 37.9035 90.7219
208 2 58.1586 40.3568 93.6889
209 1 62.7206 35.896 92.205
210 3 61.9666 40.3074 91.332
211 1 64.8032 36.6475 90.1389
212 1 64.0729 38.8022 92.0476
213 5 66.596 37.8367 93.0626
214 1 41.6081 43.316 93.3399
215 1 42.6352 42.5342 90.5318
216 4 39.316 41.1348 92.5711
217 3 44.6644 44.2534 89.706
218 2 44.0499 44.1123 92.2349
219 1 46.5888 44.4771 91.6732
220 1 44.0074 41.492 92.9887
221 3 46.7179 41.9087 92.723
222 3 45.4755 42.1427 90.7156
223 1 51.3097 42.2445 90.0085
224 1 48.4175 41.3605 90.8058
225 1 49.3241 44.427 90.7879
226 3 50.1705 42.4948 92.4991
227 3 50.8235 44.7308 93.2208
228 1 52.3288 44.8643 90.8791
229 5 55.0578 45.1201 89.8758
230 2 54.1729 42.4466 90.3446
231 4 53.9751 45.1277 93.2947
232 1 52.8725 42.4198 92.7683
233 1 55.989 40.4946 90.9129
234 1 55.8701 43.5379 92.1657
235 1 55.4881 41.1158 93.7148
236 1 57.3133 43.2834 89.4656
237 1 60.0995 44.3994 92.9749
238 2 58.1633 42.1456 91.7993
239 2 60.1353 41.9112 90.4995
240 1 60.0895 44.6269 89.9845
241 1 60.6628 41.4955 93.3999
242 2 64.3434 41.3874 90.8256
243 1 62.3704 43.1102 91.4118
244 3 63.4248 41.2427 93.3023
245 1 65.0765 43.6439 92.6266
246 1 66.2253 40.8534 92.7065
247 2 42.779 46.1926 92.2017
248 1 45.4965 46.8906 93.1017
249 1 47.8793 47.9303 91.4504
250 4 44.946 46.7246 90.3948
251 3 48.4176 45.9337 93.0411
252 2 52.5683 47.4239 90.5166
253 3 50.3187 46.6746 91.7008
254 3 49.9051 48.4064 93.3507
255 1 52.306 47.3572 93.2074
256 1 50.5384 49.3438 90.9794
257 3 53.2212 49.5614 91.571
258 1 55.0185 47.3257 91.6299
259 3 57.0036 48.4922 92.9131
260 1 54.4816 49.3331 93.9543
261 1 58.0568 48.3818 90.4628
262 1 57.7835 45.7199 91.6601
263 1 60.5267 47.2323 91.9666
264 3 62.5926 45.5198 92.6138
265 3 62.7571 47.9133 93.4468
266 1 51.6372 50.4956 93.5745
267 1 48.2923 50.4795 93.3062
268 1 55.7978 50.204 91.2172
269 1 56.745 51.3606 93.838
270 1 59.2097 49.9126 92.8223
271 4 46.9383 20.4219 98.2459
272 4 44.9775 21.3756 94.7408
273 3 50.0528 20.0879 94.4516
274 1 51.7898 19.6097 96.6369
275 1 48.8974 18.8437 96.572
276 3 49.5487 20.9938 97.652
277 2 53.1655 20.8348 94.6159
278 1 55.7364 21.3403 95.1327
279 1 55.1023 19.1527 96.9118
280 1 56.2358 21.3949 98.4919
281 3 57.7911 20.2663 96.5438
282 5 60.4251 20.7321 96.0947
283 3 41.6045 25.8722 94.3815
284 5 42.5301 23.0552 95.2407
285 1 40.0843 24.8131 96.2209
286 2 43.1182 25.303 96.3762
287 1 41.937 23.3966 98.0699
288 1 47.8177 21.6204 95.6538
289 4 44.4219 21.5709 97.49
290 1 45.468 24.0862 95.75
291 2 44.4676 24.0009 98.359
292 3 46.8817 23.2293 97.8029
293 2 47.6695 25.6123 97.1076
294 2 48.544 24.0957 95.0652
295 1 50.9284 22.3072 95.5747
296 2 52.4614 25.8794 95.032
297 1 49.4322 23.5524 97.9408
298 3 51.5958 21.9241 98.3803
299 5 52.4806 24.1354 97.0322
300 5 50.2446 25.5797 96.3116
301 1 53.8751 23.647 94.2627
302 1 56.9054 25.6917 95.2303
303 3 53.6758 21.6599 96.9663
304 1 55.3546 23.8244 96.8508
305 2 59.2341 21.6931 98.387
306 3 59.7075 25.2814 95.6762
307 1 58.2581 22.9971 96.1578
308 1 60.373 24.8948 98.3931
309 1 60.3733 23.1663 94.0262
310 3 60.8526 23.1475 96.6576
311 4 57.6872 23.9037 98.6904
312 2 62.2219 24.8951 95.7085
313 1 65.1803 24.6933 95.4408
314 1 63.2705 22.3681 96.0182
315 1 63.2893 24.6948 98.0692
316 3 65.4699 23.1999 97.6549
317 1 66.0354 26.1731 97.9503
318 1 61.9781 21.9168 98.7502
319 1 38.3652 27.0316 97.437
320 1 37.3404 29.6708 96.1709
321 2 41.6684 29.2919 94.8844
322 2 39.8082 29.4403 97.2663
323 1 39.4134 27.856 94.6477
324 1 41.4774 27.3615 96.7745
325 1 42.2066 29.7582 98.5002
326 1 47.0314 26.3678 94.4449
327 1 43.9916 27.1647 94.33
328 1 46.1117 29.2594 95.3251
329 2 43.6486 29.0041 96.356
330 1 45.2477 26.8715 96.9984
331 2 47.2301 28.1756 98.3892
332 3 47.8076 30.4227 97.2607
333 1 48.8076 28.1428 96.2641
334 3 50.4494 29.6895 94.1079
335 1 51.7006 27.8636 97.2648
336 3 52.1002 30.177 98.6962
337 1 50.5813 30.5727 96.5554
338 3 54.689 26.4191 94.0914
339 1 52.7958 28.4527 94.4047
340 2 55.8874 28.4166 94.9715
341 4 57.1488 30.6201 95.6871
342 1 54.4252 26.7417 96.7365
343 1 54.1177 29.8448 96.7452
344 1 56.8487 28.5668 97.6926
345 3 58.265 26.2802 97.4082
346 1 58.7704 27.8365 95.0226
347 1 59.5983 29.9596 97.0547
348 2 61.1223 29.1266 94.8134
349 1 61.1867 27.3622 96.9878
350 2 63.7457 26.7837 96.2846
351 1 62.6611 30.4628 97.1221
352 1 63.8177 28.9309 94.8049
353 3 66.0881 27.4318 95.3998
354 1 63.6949 27.9081 98.6589
355 1 65.7103 29.6154 97.1062
356 1 66.8566 29.9787 94.3883
357 2 67.9822 28.0159 97.336
358 1 68.8767 30.4579 96.6343
359 4 35.4137 31.5942 97.8221
360 4 36.5245 35.4339 95.4268
361 2 35.8748 34.6544 98.0004
362 1 37.5942 32.834 96.3152
363 1 39.7402 31.1877 95.1739
364 1 38.5583 35.4377 97.5653
365 4 40.1041 34.3818 94.8407
366 4 42.5154 31.567 96.0935
367 4 41.4597 34.3139 97.0718
368 3 42.8025 32.4108 98.6593
369 4 43.1848 34.4545 94.6401
370 1 40.1443 32.093 98.0017
371 1 45.0088 30.9373 97.7011
372 1 45.159 32.105 94.8067
373 5 44.3155 33.7797 97.088
374 1 47.1649 32.9811 97.1655
375 4 45.8755 35.4273 95.3653
376 4 48.1369 34.2893 94.5728
377 1 48.284 31.3587 94.7239
378 1 51.367 35.1248 95.4382
379 3 49.8286 33.1128 96.3246
380 2 49.6363 32.0487 98.5738
381 1 52.5613 32.8068 97.1078
382 5 50.758 34.6571 98.4497
383 4 48.6279 35.4514 97.0899
384 2 52.5732 31.1374 94.8953
385 1 53.8315 33.5807 94.3534
386 4 56.9008 32.9371 94.1422
387 3 55.1699 32.2403 96.3293
388 3 55.3326 33.7822 98.1404
389 4 56.585 34.5846 96.1166
390 1 57.1562 31.6779 98.4221
391 4 59.4159 31.5738 94.4342
392 4 58.7102 33.1302 96.5862
393 4 61.2131 32.7315 95.9391
394 2 61.0852 34.5749 97.8832
395 2 62.3257 31.1831 94.1384
396 3 64.6938 31.4723 95.1962
397 1 63.7201 33.3806 96.9231
398 3 65.0328 31.7419 98.5235
399 1 65.8165 35.1115 94.9937
400 2 68.884 32.108 94.4339
401 1 66.7435 32.668 96.4302
402 3 68.5092 34.4006 95.1965
403 1 69.7227 33.316 97.4249
404 1 67.5882 35.6 97.3962
405 1 37.3674 40.2226 96.425
406 2 37.9551 37.5924 95.8558
407 1 36.1014 37.4234 97.8795
408 1 40.0123 39.2503 95.0153
409 2 40.448 36.8948 96.1645
410 1 38.934 38.4345 98.2317
411 2 40.9608 36.4775 98.5365
412 1 43.1781 36.5434 96.5834
413 1 41.8972 39.0406 97.7016
414 1 46.0239 35.7774 98.358
415 1 43.3601 39.2087 94.9974
416 4 46.9334 38.1159 94.7921
417 4 45.3559 38.2926 96.8078
418 4 49.3487 37.1067 95.1578
419 4 49.7376 39.5296 96.3943
420 4 51.942 40.0301 94.7589
421 4 47.9559 37.9298 97.6094
422 4 51.9746 37.8585 96.4903
423 4 50.6812 37.4741 98.6122
424 1 54.5058 38.7597 95.3043
425 4 56.7371 37.2535 96.0424
426 1 54.001 35.7276 96.7201
427 1 56.4558 36.1217 98.6928
428 2 55.6311 38.9998 97.9045
429 4 53.113 40.208 97.6652
430 4 58.9119 38.2401 94.9852
431 4 59.3444 35.7418 96.199
432 3 58.233 38.6949 97.6529
433 1 61.9114 38.8561 94.0821
434 2 60.8841 37.9345 96.5453
435 1 60.7476 39.5524 98.585
436 1 62.2949 35.8484 95.5202
437 2 64.5715 35.8084 97.2773
438 3 64.1819 37.1263 94.1769
439 2 64.7417 39.557 94.6684
440 4 66.1498 37.6779 95.9539
441 5 63.5203 38.3311 96.6526
442 1 65.7465 40.1443 97.4315
443 1 62.4321 36.688 98.6993
444 4 68.8954 37.064 95.1052
445 1 67.6914 39.8502 95.0293
446 1 68.4264 38.5779 97.83
447 2 70.0948 36.3323 98.0537
448 4 36.2949 42.7801 97.428
449 4 39.0604 42.5072 95.0815
450 5 41.7542 41.4401 95.5935
451 2 39.9268 40.8834 97.2509
452 5 41.3766 44.1063 96.2451
453 1 39.0562 43.4315 97.9255
454 1 41.9283 42.2078 98.6126
455 2 45.6054 43.5799 94.1293
456 1 45.956 40.8595 95.1184
457 3 43.9742 40.7599 97.3779
458 1 46.545 40.495 98.0389
459 1 43.8554 44.8965 97.8314
460 2 43.848 42.7147 95.8349
461 1 46.2271 43.2968 96.8034
462 1 48.3237 43.5032 94.0885
463 1 50.8233 42.4977 95.1677
464 3 48.3834 41.7713 96.35
465 1 50.5517 41.582 98.1841
466 4 52.4169 43.6832 97.7158
467 1 49.3379 44.3292 97.0223
468 4 52.4694 44.808 95.2863
469 1 56.8677 40.5592 96.2113
470 4 53.6565 42.0282 95.7355
471 4 55.5223 43.923 95.5094
472 1 55.2077 42.3268 98.2073
473 2 54.5226 45.0954 97.7416
474 5 59.704 40.6107 96.0123
475 1 57.9308 42.9096 94.379
476 5 57.8839 43.069 97.2409
477 2 60.3168 43.3186 95.654
478 2 60.3438 42.2418 97.9039
479 1 62.7665 43.5812 94.5692
480 1 65.2706 42.1254 95.2866
481 1 62.5713 41.0517 96.364
482 1 62.3525 44.2033 97.538
483 3 64.6775 44.5701 96.4522
484 3 64.4432 42.4819 97.8585
485 1 66.9994 44.4061 95.0338
486 2 67.8051 42.0902 96.4287
487 1 66.7009 43.8822 98.1545
488 5 39.3488 46.2182 96.7648
489 1 40.9584 46.2009 94.303
490 3 43.1625 47.948 94.2131
491 1 42.2237 47.4067 96.8391
492 1 42.8285 49.8534 98.7241
493 1 43.6626 45.2198 94.7869
494 2 44.8254 47.3211 95.9748
495 5 45.6077 49.5288 94.4178
496 3 47.7353 48.028 94.2887
497 1 46.9182 45.728 95.3895
498 1 44.8077 47.5934 98.6821
499 4 46.9153 45.6162 98.437
500 1 47.1732 48.2746 96.8985
501 3 44.8227 49.7312 96.9205
502 1 49.9874 46.4972 95.1276
503 2 52.1869 48.4484 95.6541
504 4 49.5052 47.0545 98.1263
505 4 52.0559 46.3902 97.3893
506 1 49.6996 49.4602 95.8497
507 1 51.6236 49.2503 98.3689
508 2 48.8878 49.7439 98.4253
509 1 57.0081 48.83 95.5239
510 4 56.446 46.178 94.0542
511 1 54.4452 49.3777 96.9883
512 4 54.3428 46.8351 95.6495
513 4 56.8465 46.192 96.7156
514 2 56.8966 47.8797 98.69
515 2 58.9774 47.4996 94.1101
516 2 60.9698 48.9866 94.77
517 1 59.6178 45.2507 97.6178
518 2 58.6966 45.3511 95.1083
519 1 59.4597 48.0994 96.9036
520 1 61.3762 46.2146 95.1821
521 5 61.695 47.2647 98.4226
522 1 63.4858 48.063 96.2275
523 1 64.6111 46.1117 94.3395
524 2 66.3926 46.5105 96.7991
525 1 64.3685 46.3702 98.573
526 1 47.2211 51.2389 96.434
527 3 44.8269 51.937 98.2295
528 1 49.8394 52.3599 95.1396
529 3 51.99 50.8976 96.2317
530 1 50.234 52.0505 98.0725
531 4 52.143 53.7272 96.5957
532 5 53.9646 52.0227 94.9798
533 2 56.0992 51.3973 96.5273
534 4 55.1146 53.8379 96.9975
535 1 53.5029 51.7629 98.2737
536 4 57.7672 50.1504 98.0646
537 1 59.1703 50.983 95.6635
538 4 57.9149 53.2758 96.9174
539 1 61.6494 50.2362 97.1896
540 4 47.6232 18.9488 100.537
541 4 45.1578 19.7474 102.102
542 1 47.939 18.2421 103.434
543 1 50.4577 19.0929 99.3859
544 1 50.222 17.1677 101.833
545 3 49.6969 19.7198 102.06
546 1 52.4644 19.0978 101.88
547 1 53.3977 19.9394 99.1177
548 3 55.8709 19.0151 99.8594
549 1 54.8815 20.9318 101.558
550 3 54.7912 18.7406 103.202
551 3 57.0499 18.6573 102.13
552 4 53.0803 16.7187 103.454
553 3 58.2078 19.4456 98.9055
554 1 57.8043 20.9726 101.097
555 1 59.3665 19.8625 103.46
556 5 60.5584 20.2929 100.7
557 1 63.0131 21.3841 102.033
558 1 38.17 25.6343 100.363
559 2 40.4076 25.5952 98.8571
560 1 43.1536 21.5694 100.29
561 1 40.7441 23.4058 100.751
562 3 39.3795 24.6976 102.563
563 1 41.5917 21.46 103.058
564 1 42.1261 24.2456 103.462
565 2 43.561 24.1994 100.86
566 1 46.0511 22.4856 100.196
567 1 46.2038 25.5841 99.4832
568 1 44.5353 22.5031 102.839
569 1 47.5201 21.5022 102.772
570 1 46.5684 24.6429 102.394
571 2 51.8536 21.4523 100.775
572 1 50.8148 21.6938 103.218
573 1 49.1029 21.6481 100.253
574 3 48.2583 24.2171 100.312
575 1 50.967 24.0354 100.536
576 3 49.1364 23.6219 102.579
577 2 49.4573 25.9807 102.013
578 1 53.8258 23.0841 99.41
579 1 56.2404 23.6527 101.125
580 5 52.7774 25.8439 99.1564
581 3 54.6172 25.7514 101.08
582 4 55.9759 25.8704 98.9443
583 1 53.2544 23.4143 102.318
584 1 57.1401 25.9747 102.834
585 2 60.6169 22.3308 102.708
586 4 59.5083 23.1414 100.546
587 4 58.6028 25.788 100.429
588 1 58.2045 23.0837 103.311
589 2 60.0146 25.0437 102.513
590 1 62.1709 24.0579 100.913
591 3 64.3191 22.7708 99.8235
592 2 64.3929 25.6746 100.221
593 1 65.0341 23.621 102.289
594 1 66.7689 24.0532 99.9226
595 3 68.8586 25.38 102.471
596 3 37.0437 28.0442 99.6128
597 1 37.8411 30.5338 98.976
598 1 36.2111 27.2864 102.137
599 5 35.4338 30.1241 100.649
600 2 35.4962 29.5568 103.521
601 1 38.0128 29.5553 101.798
602 1 39.887 28.1855 99.7874
603 1 42.9927 26.2566 99.0455
604 2 42.5374 28.7595 101.016
605 1 41.2792 26.2993 101.557
606 3 38.8699 27.1073 102.451
607 5 40.751 28.8596 102.936
608 1 44.8597 28.5468 99.492
609 1 44.2479 26.6321 101.828
610 1 47.5078 27.6348 101.172
611 1 47.0521 30.8064 99.8372
612 2 45.5384 29.3935 101.997
613 4 47.7512 30.1695 102.634
614 1 49.5789 29.3815 99.2108
615 1 49.5372 26.3919 99.1573
616 3 51.6704 28.0093 100.082
617 1 50.1838 28.7009 102.204
618 1 52.2147 26.3648 102.125
619 1 52.6911 30.2397 101.375
620 1 54.2506 28.4029 99.4822
621 5 56.8868 27.9129 100.629
622 1 56.0175 30.5897 101.286
623 1 54.6274 28.0081 102.565
624 3 54.3901 30.8026 103.525
625 1 61.4716 26.9243 100.391
626 2 59.2414 27.8789 98.9866
627 4 58.7071 30.1435 100.211
628 1 59.3308 28.2874 102.23
629 3 61.181 29.4144 99.2954
630 4 63.4484 26.2924 102.549
631 3 64.4154 28.2076 101.238
632 4 62.1715 28.8481 102.434
633 1 66.6371 28.8074 99.8122
634 1 66.4239 26.3584 101.746
635 1 63.4536 30.4367 100.134
636 1 66.3265 29.2708 102.792
637 5 68.5671 26.4451 99.6018
638 1 69.6556 29.4586 99.4501
639 1 69.1147 28.0104 102.022
640 2 70.7825 30.3019 102.357
641 2 68.3365 30.6602 101.696
642 1 35.4558 33.1964 100.272
643 3 37.7848 33.1908 98.956
644 3 35.4623 31.8971 102.622
645 1 38.0231 32.5253 101.584
646 2 37.4591 35.4315 100.11
647 1 35.9139 34.493 103.003
648 1 40.5851 30.9825 100.813
649 3 39.6802 31.1574 103.415
650 2 38.6112 35.0275 102.325
651 1 40.0254 34.308 99.9928
652 3 42.0911 33.0693 100.798
653 1 43.1936 35.1413 99.4426
654 1 40.8112 33.5956 103.059
655 3 42.3372 31.4914 102.866
656 1 43.9864 31.1869 100.787
657 2 45.3664 33.2209 99.5466
658 2 46.0928 35.3985 100.979
659 1 44.0245 33.9819 102.145
660 3 44.7553 31.6127 103.5
661 1 46.6733 32.7417 102.07
662 3 47.8121 35.1366 102.635
663 1 48.1642 33.8397 99.8479
664 1 49.834 31.5704 101.353
665 1 50.7944 34.3167 101.341
666 3 51.8214 32.4062 99.7654
667 2 49.1822 33.3516 103.397
668 1 54.2889 31.6076 99.1855
669 1 53.3568 34.7374 99.6417
670 1 56.1214 33.5884 100.71
671 1 53.5377 33.1512 102.155
672 2 55.6802 34.8064 103.302
673 1 60.4363 32.1579 98.8777
674 3 58.9488 30.9956 103.219
675 2 58.6126 32.6692 101.177
676 2 58.4066 34.1655 99.0476
677 1 61.0116 31.3353 101.665
678 1 60.6157 34.8109 100.859
679 3 62.1113 33.4798 102.687
680 1 63.02 33.3764 99.8511
681 1 65.8754 34.2277 99.3013
682 2 65.7577 31.3655 101.033
683 1 63.8521 30.9572 103.098
684 1 64.8028 33.6924 102.266
685 1 67.6689 31.6438 99.0738
686 3 68.626 34.3718 99.5504
687 1 67.6176 33.2083 101.62
688 1 70.2977 32.3935 100.466
689 2 71.0561 35.0555 99.9465
690 1 69.4897 35.456 102.079
691 1 35.8321 40.2409 99.0871
692 1 34.9973 36.2072 100.535
693 3 37.1127 38.0721 100.228
694 1 34.8961 38.9675 101.63
695 1 37.0968 37.171 102.767
696 5 37.7783 40.3597 101.304
697 2 41.7056 35.7503 101.671
698 1 39.5394 37.1313 100.855
699 1 40.493 39.9689 100.311
700 3 42.0717 37.7811 100.189
701 3 39.2059 38.7916 102.846
702 1 41.9056 38.7283 102.71
703 3 44.0688 37.6658 98.8913
704 1 43.7 39.9892 100.201
705 1 44.1494 37.0302 101.727
706 1 46.3146 38.308 100.187
707 3 44.9145 39.5719 102.608
708 1 46.9841 37.7314 103.038
709 1 48.7385 36.6189 100.43
710 4 48.8975 39.7116 99.4553
711 2 51.8202 36.7949 101.007
712 1 51.7921 39.545 100.404
713 5 49.3417 39.094 101.991
714 1 50.0537 36.4751 103.126
715 1 51.8419 38.8199 103.371
716 1 53.7021 37.6132 99.0464
717 3 55.0591 36.0889 101.163
718 3 53.855 38.1397 101.629
719 1 56.4333 38.4499 100.434
720 3 54.5909 40.2512 99.94
721 1 55.9996 37.6727 103.297
722 1 53.315 36.1021 103.442
723 1 57.8173 35.7891 101.549
724 1 59.4179 36.782 98.9518
725 2 59.0037 38.3298 101.182
726 1 57.5783 40.185 102.617
727 1 60.0028 36.8305 103.346
728 1 61.7033 38.2305 101.144
729 4 62.7468 36.0205 102.634
730 2 64.0729 35.8499 100.568
731 3 63.4796 39.3281 99.1651
732 1 64.6535 38.4007 101.633
733 1 65.6316 37.5161 98.9719
734 1 66.5225 36.173 101.881
735 2 67.2635 39.0487 100.467
736 3 68.0982 36.6797 99.8614
737 1 70.1028 38.2705 100.421
738 1 71.0391 39.9386 102.865
739 1 68.4622 38.2042 102.886
740 2 71.3211 37.2307 102.974
741 1 36.8544 43.1667 100.274
742 2 38.3352 41.1185 98.9833
743 2 35.2415 41.6407 102.038
744 1 37.5374 42.7155 103.158
745 3 42.1253 41.4556 101.887
746 1 39.7856 42.7957 100.94
747 1 42.6438 44.0392 101.173
748 2 39.5919 44.3578 103.189
749 1 47.4555 40.8025 103.252
750 1 44.8485 42.6089 99.458
751 2 45.4023 45.0113 100.592
752 2 46.598 40.8802 100.781
753 2 47.0527 43.2058 101.729
754 1 44.7007 42.2673 102.488
755 1 47.9428 42.87 99.2312
756 1 49.787 42.0328 101.395
757 2 50.5585 44.0437 99.5122
758 2 51.5713 44.1995 101.783
759 3 52.0456 41.2943 102.524
760 1 56.7871 44.9814 99.214
761 1 52.8246 42.2669 100.206
762 1 56.1599 42.5601 101.053
763 1 54.5473 40.4156 102.616
764 3 53.8308 43.0475 102.649
765 1 54.0598 44.8264 100.545
766 2 55.4987 44.996 102.863
767 1 57.8586 40.8186 99.2077
768 1 59.39 43.515 100.036
769 3 57.6744 44.8373 101.679
770 5 58.8546 42.7701 102.811
771 2 61.7173 45.0932 100.022
772 4 60.1166 40.8613 101.048
773 4 61.67 42.8827 102.158
774 1 64.4562 44.018 100.232
775 1 62.4329 41.8795 99.5603
776 1 65.3439 41.1099 100.134
777 2 63.0758 40.5132 101.958
778 4 64.5771 42.5362 102.797
779 4 65.792 44.9063 102.892
780 1 66.4875 40.4838 102.772
781 1 68.2444 41.2758 99.0099
782 3 68.9076 40.6869 101.504
783 1 67.4422 43.093 101.306
784 1 69.9006 42.8842 103.115
785 1 38.1333 45.8096 99.5002
786 1 37.4961 45.6751 102.381
787 4 41.1863 45.2102 98.776
788 1 40.1743 48.0254 99.1012
789 2 39.5213 47.6073 101.88
790 2 40.2531 45.4482 101.075
791 1 41.2815 49.7903 101.323
792 1 42.6088 47.0682 100.56
793 1 41.5123 46.15 103.396
794 1 46.507 45.3557 103.304
795 1 43.2212 48.4985 103.164
796 2 44.2133 49.8809 101.047
797 2 47.6569 47.7833 99.826
798 1 45.6175 47.6142 101.511
799 3 44.0147 45.8065 102.63
800 1 48.5581 45.38 100.914
801 1 49.8459 48.86 100.924
802 3 48.088 47.5173 102.603
803 1 50.3814 46.2868 103.083
804 5 51.714 49.0018 103.044
805 1 51.4671 46.518 100.212
806 2 52.9254 49.402 100.7
807 1 54.2199 47.462 99.1524
808 1 56.3221 47.1456 101.368
809 1 54.9929 49.6745 102.434
810 4 53.4622 47.1378 102.181
811 5 60.2076 45.2873 102.339
812 1 59.1559 46.8704 100.068
813 4 58.9282 47.7398 102.819
814 1 60.344 49.6517 99.7174
815 1 61.9363 47.7624 101.438
816 1 57.657 49.7901 100.901
817 3 60.1641 49.8885 102.522
818 4 63.6846 49.1845 99.4074
819 3 64.5687 46.9084 101.307
820 4 62.9659 45.2677 102.315
821 2 64.6443 49.2932 102.041
822 1 66.887 46.0856 100.241
823 5 68.7548 45.5219 102.518
824 1 66.7761 47.7935 102.878
825 4 42.8506 52.1647 101.797
826 1 46.3532 50.0944 99.2892
827 1 47.2549 50.0874 102.147
828 5 45.4147 52.3191 100.954
829 1 47.4725 52.9259 98.933
830 1 47.8395 53.1516 102.194
831 3 49.8676 53.3842 100.496
832 3 48.7843 51.2127 100.338
833 3 51.3886 51.2631 100.336
834 1 50.1434 51.3854 102.678
835 2 51.7747 53.5838 102.223
836 3 52.1044 53.6319 99.5612
837 1 56.4529 52.3298 99.2877
838 3 55.2138 49.9473 99.6286
839 1 53.8763 52.107 101.113
840 4 54.5999 54.6251 99.765
841 3 52.775 51.3492 103.321
842 2 56.4833 52.0185 101.995
843 1 54.9081 54.3364 102.785
844 5 57.3366 54.4049 101.086
845 2 59.4106 52.0721 98.8174
846 1 59.2569 52.2244 101.622
847 4 62.2007 51.1919 101.283
848 3 43.6421 20.6352 104.584
849 1 46.2819 20.0355 105.194
850 1 44.2768 21.0574 107.176
851 2 46.5671 19.6372 108.012
852 1 48.6779 18.3686 106.436
853 1 51.0178 18.6055 104.443
854 3 48.988 20.3829 104.626
855 1 48.6356 21.2773 107.085
856 2 51.1351 20.9316 105.877
857 1 51.4665 18.7588 107.576
858 1 56.5755 20.5775 104.154
859 1 53.9132 18.411 105.776
860 1 53.4352 21.0674 107.385
861 1 56.8823 17.8119 104.692
862 4 56.2792 19.3233 107.052
863 1 53.4845 20.9987 104.315
864 2 59.0082 19.2369 106.2
865 1 61.5983 21.2828 104.991
866 1 37.3445 25.4249 104.15
867 1 39.4706 23.1742 104.639
868 4 42.3481 25.1577 106.227
869 4 39.5789 24.3206 107.398
870 1 41.64 22.1871 106.302
871 3 43.7957 23.0435 105.267
872 1 44.5889 24.048 107.571
873 1 46.446 23.0111 105.278
874 3 44.5453 25.1467 104.243
875 3 46.0801 25.6883 106.042
876 3 46.4507 22.2349 108.27
877 1 47.9125 24.4273 107.533
878 3 49.1274 22.9031 105.047
879 1 51.2764 24.3942 104.323
880 1 50.9815 23.2609 107.167
881 1 48.3739 25.4705 104.572
882 1 53.864 23.7619 105.854
883 2 54.5683 25.3245 103.603
884 2 55.5034 22.9748 103.716
885 4 56.1133 21.877 106.644
886 1 56.8564 24.4997 105.576
887 4 52.7053 25.4614 107.935
888 1 60.9642 21.8346 107.875
889 4 58.144 25.9636 107.59
890 5 58.7692 21.7935 105.845
891 1 60.0006 24.3426 105.448
892 2 58.6074 23.3547 108.093
893 1 61.0575 24.8512 108.138
894 3 64.2973 22.1291 104.526
895 1 62.4958 23.9895 103.912
896 3 62.7247 23.3481 106.549
897 1 65.3705 23.7667 106.435
898 1 62.9572 26.0435 106.148
899 2 65.0154 25.4763 104.392
900 1 67.3195 23.9737 104.115
901 1 68.188 25.1892 106.737
902 3 35.8416 27.5026 104.946
903 3 36.391 29.7363 106.055
904 1 37.6779 26.895 106.869
905 1 38.3195 28.6677 104.61
906 1 40.0945 26.2273 104.78
907 3 42.5871 26.8542 104.024
908 1 41.2197 28.9072 105.81
909 4 39.2047 29.204 108.032
910 4 40.462 26.8133 107.731
911 3 42.8434 29.1618 108.048
912 1 43.4864 29.2587 103.614
913 1 44.1626 27.6189 106.162
914 1 46.1088 27.3563 103.896
915 1 47.623 27.8413 106.772
916 1 46.2495 30.0365 105.098
917 1 43.6718 30.829 106.157
918 2 45.4458 29.5993 107.793
919 3 52.3857 28.8311 103.697
920 1 48.0058 30.9084 107.391
921 3 48.5241 28.2694 104.277
922 1 50.2669 26.3125 106.764
923 3 50.584 26.9529 104.148
924 1 50.6719 29.1302 105.666
925 1 52.6718 28.3551 107.733
926 5 52.9733 26.6471 105.22
927 5 54.3701 29.0207 105.364
928 2 55.8544 26.9667 104.951
929 1 56.9845 29.2957 103.79
930 4 55.1753 26.591 107.339
931 3 55.0689 29.5145 107.783
932 1 57.3411 28.6805 106.538
933 3 59.6325 29.2784 104.863
934 2 58.5677 26.8071 104.97
935 3 59.1111 29.6292 108.129
936 1 61.0952 26.8762 104.098
937 1 60.5629 27.8056 106.935
938 1 61.6482 30.7932 107.566
939 2 62.1444 29.234 105.177
940 4 64.334 28.1181 104.482
941 2 63.4719 28.5312 107.259
942 1 65.6908 26.8652 106.982
943 3 66.486 29.3242 105.634
944 1 64.3352 30.8787 106.087
945 1 67.2641 26.9998 104.475
946 1 68.9754 29.7508 104.483
947 1 70.0654 26.8316 104.734
948 1 68.5592 28.1691 107.184
949 3 37.3652 31.0839 103.863
950 5 35.2633 35.187 105.831
951 2 36.6337 31.507 107.815
952 1 35.7143 32.3491 105.391
953 5 38.201 33.5052 104.438
954 1 37.7877 34.1113 107.445
955 4 34.8885 33.3852 108.187
956 1 38.7842 31.2848 106.121
957 2 41.3315 31.5448 105.095
958 1 40.5227 34.0133 106.036
959 1 41.3114 31.4002 107.925
960 4 43.1162 33.7283 107.808
961 1 43.3993 33.4403 104.949
962 2 45.5029 32.4406 107.301
963 1 46.6996 33.1221 104.941
964 1 45.2472 35.362 106.41
965 2 45.5766 35.5035 103.759
966 5 47.7411 33.9078 107.608
967 4 48.9341 31.0819 104.651
968 3 50.5879 31.0997 107.384
969 1 50.137 33.2912 106.038
970 1 51.7003 31.5399 103.943
971 3 51.5024 34.2435 103.933
972 3 51.9958 33.1867 108.18
973 1 50.3394 35.4186 108.118
974 1 56.6787 32.3794 103.569
975 1 53.1056 31.2623 106.564
976 1 52.8679 34.664 106.201
977 2 54.3451 33.0826 104.719
978 3 55.9067 31.0785 105.842
979 3 57.2188 33.8608 105.732
980 1 55.1557 33.2043 107.343
981 1 58.6008 31.5234 106.034
982 1 59.3022 33.7618 103.639
983 2 59.1819 35.4342 106.024
984 3 60.4334 33.2794 106.842
985 1 61.3202 31.745 104.713
986 1 61.6907 34.947 105.049
987 1 60.7599 35.6258 108.201
988 1 58.143 33.9924 108.316
989 3 63.7014 33.1568 104.572
990 1 63.2326 33.4666 107.113
991 3 65.6989 33.6673 105.817
992 1 66.1423 35.4686 107.74
993 4 65.8787 32.423 108.017
994 1 66.6999 31.8363 104.23
995 5 68.3414 33.6872 106.163
996 4 68.0803 31.0818 107.056
997 1 69.7477 32.7082 103.654
998 2 67.3511 34.5062 103.891
999 4 70.6954 31.3948 106.179
1000 1 70.4166 35.4467 105.074
1001 1 70.7211 33.7895 107.812
1002 1 33.9854 39.7535 104.449
1003 1 36.7907 39.9511 103.837
1004 5 34.1382 36.8357 103.581
1005 1 33.8604 37.6848 106.53
1006 3 36.0663 37.7893 105.152
1007 3 37.752 35.9287 105.16
1008 1 36.8333 36.9474 107.582
1009 1 35.8901 39.9927 106.907