# LAMMPS data file written by OVITO Pro 3.7.7
1499 atoms
5 atom types
0.0 250.0 xlo xhi
0.0 90.51 ylo yhi
0.0 181.02 zlo zhi

Atoms  # atomic

1 1 32.3387 19.9283 61.9416
2 2 33.8715 18.613 63.7549
3 2 31.0826 19.0229 64.0973
4 2 37.4145 20.543 60.8125
5 4 36.3091 17.9442 63.1734
6 2 39.0232 17.9623 62.6398
7 5 37.8609 20.2882 63.5055
8 1 40.0836 20.8916 61.6231
9 5 40.5587 19.4948 64.0611
10 3 42.7313 20.1699 62.5302
11 1 45.4595 19.5907 63.9275
12 1 26.926 25.0826 64.2553
13 1 29.4722 23.8417 62.874
14 3 29.9087 21.0803 62.8836
15 3 31.8533 25.3609 62.5243
16 1 32.2154 22.7371 62.6006
17 2 34.7215 23.6914 62.0343
18 3 33.3871 21.8793 60.3712
19 1 32.9819 24.64 60.1664
20 1 35.8256 22.6645 59.7818
21 1 35.8712 25.6203 60.2829
22 1 35.1164 21.0187 62.4755
23 1 35.977 25.4934 63.5051
24 1 37.5344 22.9692 62.2228
25 1 38.3728 24.1834 59.5473
26 2 38.2542 25.5258 61.8582
27 2 40.2383 23.5413 61.364
28 2 40.6548 25.8014 60.1452
29 1 39.9886 22.4257 64.1763
30 1 42.6186 22.9504 62.6568
31 1 42.9605 26.0504 61.9898
32 1 40.5072 25.32 63.2953
33 2 45.0609 24.3282 61.8901
34 1 47.2923 25.5318 62.8117
35 1 45.4334 22.4785 63.9063
36 4 48.3414 22.7927 63.6633
37 1 26.8151 30.755 62.6059
38 1 26.6929 28.0597 64.0091
39 1 28.128 26.3949 61.8129
40 1 29.4084 29.058 62.416
41 3 33.9894 26.2255 62.066
42 1 30.1152 26.6451 64.0163
43 1 30.893 26.8862 60.6148
44 1 32.4561 28.1901 62.766
45 1 33.7884 27.9418 59.9919
46 2 31.6366 29.7462 60.6005
47 1 34.559 30.3146 61.7546
48 2 31.5588 30.9009 62.9624
49 2 34.4924 31.2025 59.2219
50 2 35.922 27.9313 61.7288
51 3 34.836 27.9782 63.838
52 1 38.1646 27.5107 60.0209
53 3 36.2689 29.3914 59.7531
54 2 37.7568 29.8964 61.8815
55 1 39.8375 30.0358 60.0097
56 1 37.9834 27.6888 63.3578
57 1 40.3472 30.2559 63.2446
58 1 42.6194 28.4599 60.2644
59 5 40.3761 27.7927 61.7865
60 2 42.5966 28.6008 63.196
61 1 44.8887 29.5535 61.917
62 1 43.2213 31.1138 64.1561
63 2 45.4875 26.9758 61.1058
64 1 47.7566 28.6107 62.4869
65 1 45.1001 27.2258 63.8967
66 2 28.298 33.8414 62.8034
67 1 29.1106 31.5192 64.1314
68 5 27.6071 36.2536 64.0956
69 1 29.4484 31.753 61.153
70 2 30.8209 33.3376 62.8939
71 1 32.3865 32.4051 60.8057
72 1 32.9398 35.3676 61.812
73 1 33.7483 32.717 63.5559
74 1 30.0841 36.1432 62.5926
75 3 34.2348 36.1872 64.1026
76 1 35.1487 33.5713 60.8087
77 3 36.5851 32.0492 62.4023
78 1 36.1605 34.3721 63.6713
79 1 37.3775 31.8497 59.8375
80 1 38.3446 34.4731 61.6573
81 2 39.2238 32.0148 61.7296
82 2 37.1183 34.686 59.3117
83 1 38.4837 32.4402 64.235
84 2 39.2097 35.1094 64.1751
85 1 42.3375 31.3215 61.1874
86 2 40.5341 33.3686 60.1846
87 1 41.0203 35.9702 61.9373
88 1 41.2464 33.3619 63.2021
89 2 43.0115 34.1343 61.2286
90 1 44.4933 34.8776 63.4962
91 1 45.1723 32.4609 61.954
92 1 47.893 31.8202 63.2392
93 1 29.4479 38.7903 64.0121
94 2 31.9265 37.6368 64.1663
95 1 33.5465 38.3357 62.2052
96 1 32.1011 40.4097 64.0547
97 1 35.9401 36.5595 61.6087
98 1 36.295 39.4795 62.8709
99 2 38.6157 37.147 62.5203
100 2 38.8294 39.3191 63.8465
101 2 41.037 38.2012 63.5902
102 3 43.3921 37.2457 62.9164
103 1 45.9251 37.5545 64.1854
104 1 31.8063 14.1944 68.5916
105 1 37.5374 15.1742 65.8332
106 4 34.9599 14.7158 67.8525
107 1 37.915 14.1111 68.7503
108 1 41.0719 13.6211 68.0186
109 5 24.101 20.028 68.6095
110 3 28.0641 17.2665 67.4184
111 2 28.6751 19.3681 64.8332
112 1 26.7403 19.8984 66.8653
113 1 26.1365 17.9534 69.1683
114 3 27.9321 20.0583 69.2328
115 1 30.343 16.9725 65.7768
116 1 29.7669 19.3251 67.3468
117 3 30.2816 16.3495 68.2771
118 2 32.7007 16.3974 67.3095
119 2 32.7824 16.5547 64.6947
120 1 32.6402 19.0189 66.25
121 1 31.906 18.2847 69.1174
122 3 34.5132 17.3441 68.7662
123 1 34.3915 19.9753 68.4641
124 2 31.7649 20.9792 68.2227
125 3 33.1279 20.9069 64.316
126 1 35.1069 17.2652 66.0319
127 1 35.5505 20.198 65.4122
128 2 36.8416 19.4948 67.6665
129 5 36.9676 16.8862 68.1513
130 1 38.0971 18.0505 65.5525
131 1 39.8126 16.1723 67.5444
132 1 38.8537 20.7129 66.3588
133 3 39.0723 18.6681 68.3687
134 1 43.0314 17.91 64.2996
135 1 41.2738 18.704 66.665
136 1 40.4155 16.3943 64.6328
137 1 41.1164 20.2722 69.1497
138 1 42.8123 16.0341 66.8623
139 4 43.7739 18.7219 68.1404
140 1 42.9707 20.947 65.0755
141 2 45.2586 20.4554 66.6345
142 2 45.2373 16.1929 68.3782
143 1 47.7284 19.4229 65.9446
144 5 45.3723 17.6425 66.1074
145 1 46.6579 18.9038 68.7583
146 1 49.2937 20.7764 68.121
147 4 47.8677 16.7415 67.3934
148 1 23.3246 23.015 68.9088
149 3 24.0675 24.8803 66.8764
150 2 22.3512 25.5983 69.2122
151 2 24.9146 22.1486 66.4817
152 1 27.7779 22.0293 64.8889
153 1 26.7477 24.1141 67.0041
154 1 26.0772 21.9878 69.0253
155 1 25.1289 25.2974 69.2823
156 5 29.3743 24.3214 65.7732
157 1 28.9817 22.1321 67.8512
158 2 29.7646 24.6907 68.3211
159 1 31.9168 23.529 67.201
160 1 30.8034 21.5431 65.3485
161 2 31.7537 24.3192 64.719
162 3 33.5726 21.6349 66.5951
163 1 34.3581 23.3288 64.7348
164 1 34.3006 25.3597 67.0229
165 2 33.6991 22.7653 69.0274
166 3 38.2815 24.4752 64.3
167 2 37.2086 25.7543 67.9413
168 2 37.0184 22.4154 64.8776
169 1 36.0289 22.5477 67.5489
170 3 36.5841 24.6202 65.9368
171 1 38.8697 23.525 67.0763
172 1 39.5097 25.6784 69.1241
173 2 44.1704 24.7757 64.3453
174 4 41.4375 22.143 67.0258
175 2 42.0035 23.922 65.2197
176 3 41.4074 24.7695 67.4206
177 1 44.3776 23.147 66.6965
178 4 43.6639 21.3616 68.8345
179 1 43.7967 25.9204 67.476
180 4 47.3782 22.233 66.1358
181 1 46.3971 24.9441 68.8545
182 1 46.6129 25.0099 65.6831
183 1 49.5801 25.3447 64.7305
184 4 48.8025 24.0961 67.6536
185 1 46.5507 21.9665 68.8823
186 5 50.3409 22.5905 65.9157
187 1 51.5679 25.1939 67.0157
188 1 51.3202 22.9014 68.8392
189 1 23.687 27.784 67.9839
190 2 21.6691 30.2397 68.352
191 1 24.4098 30.838 67.6
192 3 26.738 30.6962 65.3553
193 3 24.774 29.0053 65.647
194 2 25.8395 26.754 66.4985
195 1 26.8979 29.1776 67.4185
196 1 27.7962 26.4959 68.5285
197 2 28.3973 26.8071 66.0061
198 3 28.6386 29.1153 65.2437
199 2 28.5316 30.6979 69.1327
200 3 29.1313 31.1294 66.718
201 2 33.5434 30.1676 64.276
202 3 33.3226 26.1907 64.567
203 1 29.7993 28.7481 67.7805
204 1 31.1744 29.302 65.2168
205 1 31.3675 26.4428 66.7132
206 3 31.9248 30.4193 67.6519
207 1 32.5842 28.0783 69.1081
208 1 33.7694 28.4219 66.3402
209 1 36.4846 27.3716 65.8354
210 3 36.2314 29.9194 67.0883
211 1 36.2425 30.1617 64.2881
212 1 35.5281 27.743 68.7737
213 1 39.3419 26.1435 65.9738
214 1 38.5647 28.4401 67.6271
215 3 38.5891 29.6 65.2115
216 3 40.3356 27.9127 64.3627
217 3 41.1982 27.1944 67.5945
218 1 41.0609 29.5162 66.2571
219 1 40.2949 30.8377 68.874
220 1 42.3664 26.6208 65.1459
221 4 43.7627 28.9575 66.0152
222 1 42.786 28.9617 68.7573
223 1 46.1978 29.9008 64.6889
224 4 45.114 31.1742 66.9645
225 5 47.584 29.9587 67.4952
226 1 49.1135 27.0673 67.111
227 3 47.7137 27.438 64.8469
228 1 46.0522 27.6763 66.9891
229 1 49.2364 29.7348 65.1891
230 2 49.7439 29.3272 68.5793
231 1 51.8788 27.716 68.5539
232 2 51.2884 27.7878 65.6367
233 1 51.5346 30.4121 66.995
234 5 23.9822 33.6214 67.4001
235 1 26.2381 33.0883 64.5325
236 1 26.8981 32.5179 67.5806
237 3 25.7744 34.7642 69.0294
238 1 28.9429 34.002 65.6742
239 1 28.4221 35.5351 68.3498
240 1 26.0943 35.3591 66.3967
241 1 31.8799 34.9843 64.5638
242 1 29.9424 32.9157 68.584
243 1 31.5235 32.264 65.7418
244 3 31.3362 34.643 67.0881
245 5 34.0948 31.3032 66.5025
246 1 34.2078 34.2827 66.2949
247 5 32.8611 32.975 68.6033
248 3 34.0131 35.6474 68.7927
249 2 36.1613 32.4729 65.5754
250 1 35.9613 32.7265 68.302
251 5 38.3999 31.5985 66.9106
252 1 37.5131 34.7391 66.4613
253 2 38.6807 33.4119 68.8639
254 2 39.3803 36.0656 68.376
255 1 36.6354 35.4677 69.2333
256 3 40.8228 31.9388 65.4199
257 1 40.396 34.1661 66.7121
258 1 41.9307 35.8924 64.8201
259 3 41.1429 33.3587 69.2459
260 3 43.0593 33.5109 65.2564
261 1 42.6215 32.0763 67.4256
262 3 42.8841 34.9042 67.2822
263 3 44.4144 36.2865 65.792
264 3 45.468 32.5416 64.5634
265 1 45.3863 34.0699 66.7043
266 1 47.4118 34.6099 64.4943
267 3 47.4548 32.0535 65.9573
268 3 48.0561 34.1079 67.0439
269 1 49.4233 34.2119 69.2862
270 1 46.9358 32.4313 68.9259
271 3 49.3326 31.8757 67.7745
272 4 46.6522 35.3895 69.0488
273 1 49.9674 32.7904 65.4109
274 1 50.2491 35.48 66.7002
275 5 51.8249 33.0742 68.0464
276 5 25.9998 40.3276 68.1131
277 1 25.296 37.4055 68.4295
278 2 27.5409 37.706 66.6863
279 5 28.5762 40.0987 66.4829
280 3 28.4719 41.5181 68.6355
281 1 28.027 38.867 69.3179
282 4 29.8634 36.6552 65.7784
283 3 31.0095 39.1311 66.156
284 4 30.2192 37.7222 68.0685
285 1 32.7577 36.954 66.6745
286 1 34.4775 38.6663 65.0402
287 1 33.144 40.3854 66.8745
288 5 32.8845 38.2385 69.1028
289 1 30.8956 40.3809 68.8746
290 1 36.8575 37.0241 64.5431
291 2 35.1812 38.7965 67.7531
292 3 35.4326 36.5436 66.7848
293 2 35.6787 41.3107 67.2744
294 1 37.1867 40.3921 69.2903
295 1 39.4683 37.2932 65.7563
296 1 37.2285 39.5708 66.0241
297 1 39.6534 39.0807 68.1265
298 2 37.4232 37.5778 67.7716
299 2 34.9415 41.3652 64.7698
300 1 40.7169 40.3051 65.65
301 2 40.3869 41.5126 68.9891
302 2 41.6866 37.3381 67.229
303 1 43.2137 38.6687 65.3185
304 2 43.8613 41.5263 66.3677
305 1 44.2336 37.1152 68.2299
306 1 42.6349 39.9164 68.2204
307 1 45.6459 39.4213 66.8904
308 1 47.3597 36.8353 66.7312
309 1 48.4565 39.6284 68.0122
310 2 49.3831 37.0456 68.8041
311 1 30.765 42.0532 66.4394
312 1 33.7967 43.2453 67.0958
313 3 31.8491 42.8672 68.8925
314 2 36.3733 43.3159 65.9167
315 1 36.6175 43.5014 68.7591
316 2 37.6946 41.6259 64.3306
317 1 38.5729 41.9882 67.0013
318 2 39.377 44.1381 68.4637
319 1 41.5005 42.8711 67.0744
320 1 43.5954 42.6978 69.1154
321 1 46.4907 41.9755 68.1845
322 1 28.1934 15.2343 69.518
323 5 28.0071 14.2298 72.1997
324 3 29.9974 13.4602 70.5211
325 3 30.422 14.3341 72.9295
326 1 32.5799 13.3239 71.4942
327 3 34.1387 15.2368 72.5567
328 3 33.6425 15.4015 70.0535
329 1 35.5714 13.3838 70.6687
330 2 36.4528 15.0076 73.3598
331 1 34.8846 12.692 73.4953
332 1 37.7506 12.2928 72.828
333 5 39.554 12.2788 70.3621
334 4 38.3548 14.6705 71.6331
335 2 39.0091 14.9611 74.2226
336 1 40.7849 13.2088 72.9346
337 2 40.6717 14.8074 70.399
338 1 42.5097 12.7327 70.4796
339 3 42.9592 15.1902 69.4029
340 1 43.1318 15.1732 72.2354
341 2 44.0861 12.6618 72.7483
342 1 45.2024 14.1435 70.2872
343 3 46.0178 15.37 72.4895
344 1 22.397 19.807 73.324
345 2 23.9673 18.5085 70.9251
346 1 26.5555 16.735 71.8878
347 3 26.1908 20.0161 70.9104
348 3 24.8146 16.5419 74.1393
349 1 25.2047 19.0489 73.2638
350 2 29.1956 16.6512 72.7126
351 1 28.9938 17.8904 70.0953
352 1 28.2521 19.3394 72.4932
353 3 30.2739 20.2577 70.1215
354 3 30.99 18.4779 71.8784
355 1 31.1232 15.9214 70.8577
356 1 32.0354 16.3645 73.6867
357 1 32.7196 19.4462 73.7017
358 1 33.7148 17.792 71.3208
359 1 32.9295 20.7186 70.9533
360 5 36.0452 16.1238 70.8309
361 1 36.5045 18.9255 70.3655
362 3 35.1441 20.2108 72.6621
363 1 35.0222 17.6594 73.8839
364 4 38.7402 16.735 70.139
365 1 37.7803 17.6089 72.787
366 3 39.4473 19.0429 70.9601
367 1 37.7832 20.9083 72.3038
368 1 41.5483 17.3901 69.7019
369 1 40.4972 16.547 72.4776
370 1 40.1226 19.5642 73.5938
371 4 42.4564 19.6085 71.5598
372 1 44.4226 17.3031 70.72
373 1 44.1689 20.3432 73.8528
374 4 42.6108 17.8989 73.5895
375 4 49.7291 18.0611 69.6371
376 4 45.1129 20.3808 70.8982
377 3 46.55 18.567 71.5422
378 1 45.3849 17.5657 73.7694
379 1 48.4387 17.6234 72.9748
380 1 47.3438 16.3268 70.3392
381 1 48.5403 20.2537 70.9629
382 5 47.0008 20.4423 73.435
383 1 51.033 18.8744 72.7548
384 3 23.6705 24.2635 71.3948
385 3 21.437 25.1868 71.6408
386 1 22.3541 22.9366 73.3753
387 2 22.9186 25.5976 73.7944
388 1 23.969 21.4338 71.3678
389 4 20.3611 24.812 74.1804
390 2 25.9279 23.4589 71.2428
391 1 28.3944 22.0062 71.0161
392 4 28.0244 23.9986 73.1889
393 3 27.6484 24.0836 69.5626
394 1 26.4258 21.7017 73.1964
395 4 25.1834 24.3009 73.7311
396 4 29.3628 25.1592 71.0686
397 1 26.7077 26.0569 71.7086
398 1 31.034 22.9296 70.0428
399 5 32.6047 25.2718 69.4795
400 4 30.6277 21.0708 72.7313
401 4 30.7797 23.6559 72.823
402 4 32.1869 25.4246 74.061
403 1 33.6352 23.6087 71.7612
404 1 33.1136 22.297 74.3503
405 5 35.6904 21.7862 70.4285
406 2 36.3898 23.3997 72.3103
407 1 35.5354 24.8555 69.8118
408 1 34.9522 24.8113 74.3117
409 2 37.8497 23.713 69.8146
410 1 39.1386 23.7133 72.1252
411 1 38.3714 21.1987 69.342
412 1 36.9908 26.0232 72.296
413 2 43.8522 23.9301 69.3681
414 2 40.466 21.4069 71.5468
415 1 41.1176 23.2667 69.6883
416 3 41.8012 24.4057 71.9953
417 1 40.6682 25.229 74.2618
418 1 43.6264 22.5582 71.7352
419 1 44.71 25.4004 71.5546
420 1 41.5967 22.1971 73.8925
421 1 43.6493 24.5893 74.2619
422 3 45.4552 22.7224 74.1059
423 1 46.7791 22.9725 71.7723
424 3 49.0189 24.5288 72.6594
425 1 49.7975 25.634 70.023
426 2 49.4809 22.0099 72.6361
427 2 48.9302 22.9831 70.1728
428 3 47.346 25.5989 71.2196
429 1 46.6333 25.3338 73.8851
430 5 52.6008 21.0774 74.1318
431 1 51.6011 21.2415 71.2057
432 1 53.4221 23.5069 72.5681
433 3 50.9977 23.7929 71.5166
434 1 51.0264 23.4749 74.3092
435 3 54.2621 26.0891 72.1121
436 1 52.7921 25.2515 70.0559
437 1 23.5938 26.9835 71.3738
438 1 21.0293 27.522 72.9944
439 2 23.0618 29.278 72.9536
440 5 21.2553 27.9944 70.0279
441 1 20.8917 30.4842 71.6196
442 1 23.5347 29.9554 70.2703
443 5 25.8207 28.1635 69.8686
444 1 25.6178 29.7938 72.2903
445 1 28.6517 28.3278 70.6642
446 5 27.6086 28.2339 73.3906
447 2 26.2773 30.7614 69.837
448 4 25.0001 27.1762 73.8105
449 2 29.4946 26.3852 73.5707
450 1 28.5357 31.0264 71.8523
451 1 34.2759 30.4933 69.3584
452 4 30.2986 28.9135 72.8842
453 3 30.3877 26.7423 69.3831
454 4 31.4719 26.6447 71.7616
455 1 31.1038 30.5306 70.1641
456 2 34.0972 26.3942 71.5458
457 5 32.9901 28.9669 71.8413
458 4 34.6661 27.6736 73.9759
459 1 33.5105 30.52 74.1703
460 4 35.7233 28.4523 71.5568
461 4 35.8029 30.9321 71.9215
462 2 37.7988 27.4773 70.1404
463 1 38.515 29.3511 72.1625
464 1 37.439 30.3561 69.5557
465 2 38.5537 27.4245 74.189
466 1 39.9307 26.6897 71.8314
467 2 40.2347 28.2827 69.6823
468 3 41.1185 29.6088 71.4261
469 1 41.0572 28.5211 73.8892
470 1 42.2938 26.2688 70.0304
471 1 43.5829 28.7875 71.7688
472 3 42.507 26.5951 72.7592
473 3 44.677 27.1185 73.6797
474 1 42.5853 31.2535 73.3168
475 5 45.4168 29.8118 69.3656
476 1 47.6559 27.6936 69.5157
477 2 44.9118 27.2613 69.6388
478 2 45.7648 30.3285 73.8508
479 3 48.6319 26.9648 72.6904
480 1 46.4165 28.2952 71.9785
481 3 47.8276 30.2771 70.331
482 1 48.4776 30.3458 72.9159
483 3 49.9216 28.4798 74.0357
484 1 52.9357 30.2154 69.8482
485 1 50.0925 28.4418 71.1036
486 3 52.7345 27.8757 71.1984
487 1 51.8213 30.0638 72.8574
488 1 51.4306 26.2054 72.8665
489 1 54.1557 28.4122 73.49
490 2 54.2619 31.1889 72.4549
491 1 22.2397 32.6931 69.7683
492 3 23.391 35.241 69.3924
493 1 23.4184 32.0293 72.5531
494 3 23.0945 34.3205 73.9513
495 1 21.6877 34.9777 71.6701
496 1 20.6702 32.9236 73.5858
497 1 24.6649 34.761 71.7394
498 3 24.8405 32.6529 69.9971
499 1 27.5314 33.4037 70.4486
500 2 26.1667 32.487 72.465
501 1 26.9982 35.1532 73.5947
502 2 29.349 35.2077 71.15
503 1 29.3248 33.4275 73.4117
504 5 31.4354 35.6429 69.3819
505 2 31.1985 31.3113 72.7734
506 1 31.4503 33.5021 71.2106
507 3 33.3319 31.6137 71.6484
508 1 34.5429 33.809 70.8964
509 1 32.6032 33.3941 74.0581
510 1 31.0717 35.9338 73.3871
511 1 33.3253 36.3982 71.4977
512 1 34.4567 35.8654 74.3574
513 1 36.6685 35.6943 72.2989
514 1 35.5846 32.9794 73.7509
515 4 37.3136 32.9386 71.0808
516 1 39.5112 34.9321 71.0926
517 3 38.3572 33.3652 73.4637
518 4 39.2076 35.8663 73.8454
519 1 41.8622 35.8553 69.5147
520 1 40.0124 32.0337 71.5706
521 1 41.1341 33.8473 73.9044
522 2 42.2187 33.7974 71.4156
523 5 42.8228 31.3905 70.3534
524 1 44.1783 33.8109 69.5183
525 1 44.1645 33.9717 73.2276
526 1 42.0373 36.3827 72.5346
527 1 44.6844 36.3441 71.2641
528 1 45.4676 31.6085 71.5648
529 2 46.2919 34.2684 71.4319
530 5 48.3484 32.8851 71.5127
531 1 48.3238 36.2829 71.2329
532 1 46.8695 32.9268 73.9663
533 3 48.7887 34.741 73.3466
534 1 46.5182 36.0687 73.6558
535 3 50.5715 34.785 71.6716
536 1 50.483 32.6288 73.4485
537 1 50.2895 31.3714 70.2295
538 3 53.0895 33.1172 73.8667
539 1 52.561 33.0087 71.0741
540 1 53.1169 35.5241 72.3898
541 3 51.1318 35.1026 74.1168
542 1 51.929 35.7185 69.4408
543 3 22.9818 36.6507 73.3122
544 1 23.4529 37.5102 70.822
545 4 22.7885 39.0233 74.2318
546 3 25.5779 39.1486 70.5779
547 1 25.4229 37.7814 73.0072
548 1 24.9192 40.6618 72.868
549 1 26.9124 36.5297 70.779
550 3 27.5579 38.9758 72.0578
551 1 27.6357 40.7754 74.0076
552 3 28.6736 36.956 72.8231
553 1 29.4848 40.6152 71.433
554 1 30.2557 38.9045 73.7491
555 4 30.1987 37.684 70.8864
556 2 32.8916 37.9962 73.7676
557 4 32.2179 39.2448 71.507
558 1 34.0892 41.0735 69.5249
559 4 34.466 40.2946 72.2103
560 3 32.4332 40.56 73.8196
561 2 35.324 38.0357 73.0099
562 1 35.455 38.1168 70.3051
563 1 37.2851 39.9801 72.4857
564 1 38.3301 37.6356 70.457
565 3 39.4342 40.0852 70.826
566 4 39.5774 38.2013 72.864
567 2 39.7956 41.0398 73.153
568 4 41.199 38.3675 70.432
569 1 41.8683 41.3131 71.2021
570 4 43.6516 38.8642 70.8435
571 5 41.9692 39.2687 73.2229
572 2 44.4277 38.3281 73.3284
573 4 44.5633 40.8523 72.3854
574 3 47.4634 40.741 70.4666
575 3 45.0294 40.4684 69.6387
576 1 46.5366 38.2596 69.6684
577 3 49.0273 38.8446 70.5552
578 1 46.9527 38.874 72.5384
579 1 49.7002 40.0988 72.7697
580 1 49.3654 37.2922 73.9639
581 1 51.1072 37.5717 71.5952
582 3 52.1469 37.4013 74.1539
583 1 26.8196 41.5688 70.8081
584 3 28.4454 43.0043 72.6762
585 1 29.5068 43.3387 70.2229
586 3 30.2489 41.655 73.7595
587 1 30.8486 44.3184 73.4254
588 3 31.5859 44.8717 70.8235
589 1 31.9807 42.2018 71.5787
590 1 34.2457 43.0042 73.2493
591 1 34.0235 44.0416 70.0899
592 1 33.5408 45.7638 72.5164
593 2 35.9816 42.2025 71.2053
594 5 36.4546 44.8809 71.5535
595 1 38.694 42.6041 70.8154
596 1 37.4527 42.8695 73.5734
597 1 39.2585 45.4542 70.8744
598 2 38.4463 45.4324 73.4857
599 1 42.5563 41.91 74.3956
600 3 41.2663 43.7358 70.1233
601 1 40.5988 43.6677 72.8732
602 2 40.8381 46.4311 73.0673
603 2 43.3211 43.5317 71.9465
604 1 42.9465 45.0495 74.2494
605 1 45.3168 43.3454 74.1626
606 1 45.8746 42.8813 71.002
607 2 47.344 41.604 72.9088
608 3 26.9335 15.0384 74.4098
609 1 28.0809 14.2049 77.6959
610 1 25.6338 15.8097 76.6507
611 1 29.4697 15.4503 75.3006
612 2 30.5585 13.2647 76.7374
613 1 32.1837 13.3429 74.5999
614 1 30.2123 12.7085 79.386
615 2 30.5075 15.3112 78.3374
616 2 34.4161 12.4748 76.1668
617 1 32.9852 13.4239 78.2913
618 1 34.3904 15.1822 75.4463
619 3 31.9308 15.4328 76.3175
620 1 36.5875 10.7404 75.1915
621 2 36.2193 11.8837 77.801
622 1 35.7931 14.6519 78.0317
623 1 37.1731 13.4686 75.6402
624 1 38.5164 13.2499 78.869
625 2 39.4809 11.1766 74.5711
626 5 38.721 10.9221 77.2047
627 2 38.4376 15.3967 77.3756
628 1 40.0659 13.282 76.194
629 2 41.4785 12.826 78.6447
630 1 41.0154 15.4733 77.9258
631 4 41.8809 15.0489 74.9034
632 4 42.6829 12.3642 75.3396
633 1 44.7805 14.4538 74.7634
634 1 43.7605 14.2811 77.6639
635 2 46.5237 14.3313 77.6602
636 1 47.5721 15.5118 74.8495
637 5 23.7787 18.5871 75.749
638 1 23.9793 17.581 78.5268
639 1 24.6601 20.8101 77.4668
640 2 22.1719 19.5514 78.0224
641 1 27.2858 17.6462 74.891
642 3 26.0595 18.3776 77.1663
643 3 26.4012 20.1808 75.4565
644 3 28.1712 16.8655 77.4075
645 1 28.3703 19.6244 77.1911
646 1 30.1186 18.458 74.7051
647 1 30.8201 17.7275 77.4292
648 2 30.6259 20.0725 78.635
649 1 33.272 16.4301 78.4006
650 3 32.8935 17.8128 75.8273
651 1 33.4481 19.4586 78.2788
652 2 34.5468 19.9104 75.6053
653 5 31.5705 20.6254 76.1988
654 2 35.1238 17.7312 76.7682
655 1 36.5008 20.0616 77.6539
656 1 36.2178 17.3754 79.1615
657 1 37.0983 16.5233 75.5598
658 5 37.2862 19.4183 74.9568
659 2 38.3344 18.0376 77.4743
660 1 39.5064 20.4777 76.5137
661 2 38.7258 19.7283 79.3079
662 1 39.9748 17.2729 75.4761
663 1 41.0863 18.4829 78.023
664 4 42.8911 17.1018 76.0415
665 5 44.4158 19.3125 76.649
666 3 43.2887 17.0109 78.5593
667 3 41.9911 19.8028 75.5887
668 1 43.8456 19.5122 79.4267
669 2 41.972 20.9593 77.9085
670 1 49.5832 20.3166 74.8358
671 4 45.4015 16.6196 76.5377
672 1 45.8009 16.6954 79.2006
673 1 47.3003 18.6927 75.8259
674 1 48.4279 16.4048 77.5908
675 1 46.7134 19.6716 78.6186
676 2 49.7808 17.4281 75.3988
677 1 49.6235 19.2008 77.9314
678 2 51.0955 16.9137 78.2177
679 5 51.9655 18.8293 75.7779
680 1 52.6014 19.3773 78.4929
681 2 24.291 21.3501 74.6788
682 1 21.9144 21.1833 75.8952
683 4 20.8097 23.5431 77.0969
684 4 21.7102 25.9291 76.2117
685 4 23.013 24.921 78.8367
686 1 23.6276 23.6263 76.102
687 4 22.5387 22.211 78.9871
688 4 20.3908 25.8751 78.8478
689 4 25.3497 23.6686 78.5513
690 1 26.7011 22.9019 76.0683
691 3 27.0666 21.6082 78.4328
692 1 27.3253 25.9811 75.2726
693 4 29.5961 23.8242 75.2452
694 5 28.871 21.193 74.841
695 1 29.5339 22.3996 77.6924
696 2 28.04 24.9219 77.6248
697 2 30.3746 24.7695 78.6742
698 3 32.2145 21.9271 78.474
699 5 32.0347 23.8128 76.6351
700 1 34.4854 22.2145 77.144
701 1 33.5926 24.3841 79.0853
702 1 36.1164 22.0063 74.6098
703 2 35.717 24.5863 76.9735
704 1 36.6549 22.6055 79.3761
705 3 36.2768 25.2653 79.3354
706 2 38.9466 22.1675 74.4584
707 2 37.6242 22.4996 76.7938
708 1 37.8773 24.6119 74.9419
709 4 38.329 24.8667 77.8542
710 1 39.5665 22.303 78.9464
711 1 40.6616 23.4156 76.5223
712 1 40.9373 25.6869 79.1649
713 1 43.57 22.1382 76.1654
714 1 43.2388 24.9106 77.2202
715 3 42.2715 23.1035 78.8218
716 1 45.0512 22.3435 78.7249
717 2 48.3092 21.4869 77.2592
718 2 46.1887 21.2529 76.0597
719 1 48.0998 22.9001 74.7696
720 1 46.1493 24.1586 76.6948
721 1 49.1687 24.0058 77.3815
722 1 49.345 25.9889 75.1186
723 1 53.6962 23.1446 76.3887
724 1 51.2096 21.7492 76.8807
725 2 51.6848 25.0365 76.3134
726 3 53.2534 21.9084 78.9886
727 1 51.8526 24.2016 78.9964
728 3 54.6088 23.9432 78.8657
729 1 53.9183 25.62 74.7448
730 4 23.0368 27.9966 75.2815
731 2 21.0413 31.0279 77.6184
732 4 22.6492 27.5731 78.3445
733 4 20.4313 28.37 76.9436
734 4 19.6733 29.7336 79.4166
735 1 21.0637 30.079 74.6718
736 4 23.2793 29.8236 77.1218
737 3 24.446 30.5202 74.712
738 1 27.2349 30.9377 74.5333
739 4 24.8277 26.1503 76.9383
740 4 25.2705 28.7621 78.9802
741 1 26.01 28.6853 76.0366
742 3 28.1513 30.3331 76.9786
743 4 26.2682 26.2051 79.4454
744 2 29.103 28.5339 75.3909
745 1 28.2058 27.7427 77.8509
746 5 31.9942 28.1369 74.7468
747 1 30.3443 26.273 76.325
748 1 31.0504 29.1881 77.2473
749 1 31.9224 26.8889 78.8549
750 1 30.1693 31.0498 75.1319
751 5 33.4995 26.2642 76.4446
752 2 33.9574 29.0758 76.6099
753 1 36.6227 29.824 74.5505
754 1 39.5702 31.0679 74.4807
755 1 35.097 27.4075 78.4943
756 1 36.6321 27.1229 76.0671
757 1 36.4987 30.0308 77.7798
758 1 38.0394 27.6531 78.921
759 3 38.6065 29.094 76.2407
760 3 39.278 30.9612 77.5857
761 1 40.0512 26.9255 76.6136
762 5 41.3058 29.5992 76.5156
763 1 40.7733 28.959 79.2705
764 2 42.5409 26.7885 75.3906
765 1 43.1435 27.7746 77.8816
766 1 43.8146 29.0929 75.116
767 1 43.6376 30.6887 78.2816
768 3 45.0743 26.6691 76.0645
769 2 45.7063 29.2421 76.9584
770 3 45.1249 26.25 78.5982
771 1 47.1015 28.1161 74.8383
772 1 47.4385 26.8261 77.5176
773 2 47.7647 29.6212 78.3234
774 3 49.2819 28.5161 76.4498
775 1 47.8427 30.8008 75.8091
776 1 53.6911 30.8313 75.3989
777 1 53.7368 26.2591 77.7354
778 1 50.4519 26.6856 78.0442
779 2 54.8484 28.3481 76.2479
780 1 50.4608 29.5024 78.7124
781 1 51.9724 27.806 75.5368
782 2 52.8694 28.9481 77.7294
783 1 50.7731 30.6235 75.7411
784 1 54.8847 30.6698 78.2121
785 4 20.0942 33.34 76.6886
786 1 21.0965 35.6476 74.96
787 1 22.6499 32.2779 75.7581
788 2 22.9259 34.7268 76.6713
789 1 23.0403 32.8581 78.7582
790 1 24.6735 36.2264 75.3426
791 5 21.144 35.2203 78.5695
792 4 23.8368 36.0165 78.9102
793 1 25.2467 33.2015 74.8732
794 5 25.3739 34.2394 77.5343
795 1 25.6077 31.3984 77.3929
796 1 27.9426 33.2723 76.2013
797 2 27.1105 35.8805 76.5418
798 1 26.8673 36.016 79.3136
799 4 27.3621 33.0466 79.2935
800 1 29.4521 35.1666 77.9835
801 3 29.1915 35.586 75.2129
802 1 29.8439 32.0023 78.1469
803 2 30.7206 33.6571 75.9943
804 1 32.2035 34.1987 78.5705
805 5 32.1217 35.8733 76.1005
806 1 32.5705 31.6858 76.8347
807 1 34.6161 33.9185 76.602
808 4 34.3508 31.8997 79.0017
809 4 34.103 36.3555 78.0063
810 3 35.077 31.4001 76.0848
811 2 36.5142 32.8031 78.4159
812 3 36.9849 34.9656 74.9679
813 1 37.5144 32.4478 76.0109
814 1 39.0069 33.5116 78.4931
815 2 39.4015 34.2543 75.884
816 1 36.9638 35.5294 77.5246
817 2 43.9737 36.3372 74.5845
818 1 41.4101 32.3948 76.5185
819 1 41.2634 35.1593 77.7645
820 2 43.502 33.4416 78.0551
821 1 44.4101 32.0184 75.6446
822 3 43.0409 34.4304 75.7557
823 1 45.8246 34.7263 76.2343
824 1 45.6426 34.6343 79.1899
825 1 48.9546 33.9438 75.8445
826 1 46.3755 32.1034 77.9159
827 1 49.4127 32.1959 78.1873
828 1 48.6592 35.2408 78.5529
829 5 53.6813 35.4809 75.2306
830 1 50.867 36.3572 76.4435
831 2 51.139 34.203 78.8398
832 2 52.2414 31.3753 77.9248
833 1 51.8845 33.4539 76.3013
834 2 54.5749 33.189 76.7415
835 1 53.335 35.6832 78.0936
836 1 53.6025 33.1006 79.4112
837 1 22.486 37.5558 76.8269
838 4 23.5389 40.3997 76.9432
839 2 25.2805 39.3723 75.2631
840 1 25.5233 38.101 77.5868
841 1 27.6542 37.9852 75.0354
842 1 28.5226 38.0527 77.9316
843 2 27.2956 40.1848 76.7871
844 1 28.9816 40.4728 79.3964
845 1 25.7301 40.9139 78.8585
846 1 29.8856 40.4572 76.3322
847 1 31.3598 37.3696 78.7001
848 3 31.5026 40.0632 78.5281
849 3 30.2392 37.5831 76.0471
850 1 32.4838 39.0381 76.1746
851 3 33.4725 41.2466 77.315
852 1 34.0299 38.9594 78.9048
853 1 37.341 37.7541 74.7731
854 4 34.8613 40.2814 74.8588
855 2 35.8265 40.5298 77.5611
856 4 35.1244 37.9949 76.3232
857 4 37.4216 40.805 75.5568
858 2 39.1879 36.6189 76.5178
859 1 37.731 38.5191 77.8029
860 1 38.773 41.2234 78.3871
861 3 39.1262 36.4504 79.1763
862 1 39.9207 39.3977 75.4752
863 5 41.4888 36.7587 75.3043
864 1 40.9492 38.1903 77.9768
865 1 43.7606 36.6068 77.3989
866 1 43.1595 39.1642 75.7835
867 1 43.9089 39.3458 78.7016
868 5 41.5387 41.123 77.2896
869 4 48.1245 39.6674 75.2269
870 2 47.9677 36.4969 76.1481
871 5 45.8483 38.0107 75.6896
872 4 45.6151 40.5809 74.8391
873 5 46.7206 40.2565 77.6788
874 4 49.2068 38.5242 77.4396
875 1 46.4696 37.4104 78.4153
876 4 49.7091 41.2857 77.1878
877 4 52.6132 38.5109 77.4972
878 5 50.9914 39.4008 75.34
879 5 50.9796 36.9141 79.3092
880 5 25.7985 42.0687 75.8446
881 2 27.8835 42.5073 78.0122
882 1 28.7769 43.1299 75.5177
883 1 30.8642 42.6685 78.3055
884 2 30.6782 44.8214 76.6539
885 3 33.2859 43.746 77.8051
886 1 32.0585 42.4884 75.5304
887 1 33.1162 45.2417 75.458
888 5 35.1063 42.8699 75.9443
889 5 35.2604 45.5814 77.4374
890 1 35.7713 43.0006 78.7059
891 1 35.9168 45.3555 74.4793
892 4 39.7988 42.3813 75.5049
893 4 37.695 43.7393 76.5643
894 4 37.7905 46.6302 76.2563
895 4 37.9067 45.3162 78.9098
896 1 40.2083 45.2086 75.567
897 5 40.1934 43.6803 78.1723
898 4 40.1845 46.658 78.1094
899 1 44.7441 44.9141 76.8607
900 2 42.2969 43.7006 76.587
901 1 44.3416 41.9591 77.013
902 3 42.4337 46.4522 76.478
903 1 42.5986 45.3796 78.941
904 4 47.8611 42.4833 75.3878
905 1 46.916 43.2136 78.0216
906 2 27.4978 13.2534 80.3371
907 5 29.1194 15.3241 80.4811
908 1 27.244 14.8052 82.7448
909 1 29.833 13.1904 82.2581
910 3 31.7146 14.6263 80.3895
911 1 32.8185 12.5955 81.5835
912 1 31.9459 12.9725 84.479
913 3 33.8959 14.3657 83.3749
914 1 34.2903 15.2549 80.894
915 2 31.5724 15.1451 82.8743
916 5 35.4613 12.6447 80.2644
917 2 37.6537 10.8454 79.7824
918 3 35.2704 12.3587 83.0199
919 3 36.2535 14.5906 82.6838
920 1 37.9399 12.6884 81.8065
921 1 38.9307 15.5119 82.505
922 2 37.0671 14.9839 80.4281
923 3 40.1696 11.8061 80.627
924 1 40.521 13.1687 83.3354
925 3 40.2976 14.3147 80.5065
926 3 41.6776 15.3636 82.2522
927 1 42.5778 12.8959 81.3473
928 2 42.7056 15.0913 79.9754
929 1 43.9491 14.9365 83.482
930 1 45.1571 14.1786 80.5917
931 1 48.0637 14.9437 80.1617
932 2 24.4781 17.2133 81.2268
933 1 24.4121 19.5105 82.7926
934 2 23.6242 19.8603 80.1523
935 1 26.4677 16.0338 79.5272
936 1 26.2596 19.237 79.6687
937 1 27.0789 17.6039 82.0332
938 1 27.1795 20.4077 82.7235
939 1 28.9839 18.0575 79.7444
940 3 29.4697 16.4236 82.7672
941 2 29.5048 18.8848 82.379
942 5 28.7755 20.9411 80.369
943 2 25.2015 17.0945 83.9606
944 1 31.5046 17.1316 80.9246
945 2 31.6954 19.1579 83.5203
946 1 31.6498 20.0158 80.9934
947 2 34.0268 18.3051 80.7212
948 1 33.4429 17.0243 83.246
949 1 34.2549 19.9174 82.9962
950 4 38.8809 16.5598 79.6146
951 1 36.3064 17.2133 82.2194
952 1 36.3743 19.8948 80.7632
953 1 38.9952 18.5003 81.7694
954 3 37.2452 19.6742 83.4249
955 1 39.8556 19.4687 84.4197
956 4 41.175 17.133 80.481
957 1 41.2104 20.2929 80.5349
958 1 43.7963 17.0599 81.4098
959 1 41.3053 16.7017 84.4652
960 2 41.6598 18.5161 82.5913
961 1 43.8347 20.0032 82.3582
962 2 43.9053 17.7638 83.959
963 3 45.9745 18.5716 81.02
964 1 46.6065 16.3095 82.4141
965 2 48.251 17.5813 80.0487
966 1 46.5708 19.1362 83.4985
967 1 48.4196 19.9103 81.1581
968 3 48.9271 17.8054 82.7587
969 3 45.9395 20.9726 81.0445
970 1 50.8468 18.3136 80.7129
971 5 53.0234 20.2972 81.2212
972 2 50.6726 20.7384 82.446
973 1 21.8512 24.8548 81.4816
974 1 22.8016 21.9385 81.9227
975 1 23.0657 23.9399 84.1536
976 2 25.1432 22.2255 83.2415
977 1 24.7982 24.3133 81.4795
978 4 25.5545 21.7632 80.6116
979 2 27.3316 23.1242 82.544
980 3 25.8228 24.352 84.2685
981 2 29.5614 24.4679 82.1566
982 1 27.9589 23.7431 80.0386
983 1 27.1486 25.9465 82.2843
984 1 29.7645 21.8684 83.0678
985 1 31.0063 22.9631 80.5174
986 3 32.3784 21.8311 82.7769
987 1 31.4197 24.0411 84.3069
988 3 31.5013 25.6516 81.2122
989 1 34.0079 21.7291 80.5212
990 2 33.0171 24.045 81.9708
991 1 34.2496 23.095 84.2178
992 2 36.1625 21.8354 82.8046
993 1 35.6091 24.157 81.6835
994 1 38.6772 21.6502 81.8195
995 3 37.5928 24.0283 83.416
996 1 38.5353 24.6945 80.9775
997 1 35.9207 26.029 84.0211
998 3 39.9844 23.707 83.5083
999 1 41.1658 23.3316 81.2174
1000 2 43.4434 22.0522 80.8015
1001 2 41.2054 21.3051 83.0752
1002 1 43.1618 23.2288 83.4274
1003 1 43.613 24.9704 80.3209
1004 1 41.5942 26.0087 82.3714
1005 2 43.9862 25.9545 83.5079
1006 2 46.7998 24.9047 79.5386
1007 2 45.3512 21.5625 83.7843
1008 1 45.6589 23.4839 81.6741
1009 1 47.9066 22.5051 79.7996