# LAMMPS data file written by OVITO Pro 3.12.4

851 atoms
5 atom types

0.0 250.0 xlo xhi
0.0 90.51 ylo yhi
0.0 181.02 zlo zhi

Atoms  # atomic

1 1 42.3885 52.8788 72.5083
2 1 45.1556 51.9462 72.7061
3 3 47.6431 51.5998 72.0508
4 1 49.6138 53.3019 72.2537
5 1 40.3791 57.7886 71.2884
6 3 40.6357 54.6811 70.8823
7 3 39.3026 56.2193 69.4078
8 1 38.3878 55.7264 71.9832
9 5 37.4299 58.3055 72.7253
10 2 42.815 53.8427 69.8411
11 1 44.9797 55.8447 69.1835
12 1 45.6406 56.6104 72.0708
13 2 43.8348 58.0341 70.4642
14 1 42.02 56.3946 69.1571
15 1 42.7187 55.8034 72.1189
16 2 44.7942 54.1449 71.2795
17 2 44.2111 58.1692 67.9083
18 1 49.6122 56.47 68.8959
19 2 47.2701 57.13 70.1154
20 1 48.9793 56.2198 71.8749
21 3 46.9804 54.1183 72.3652
22 1 47.5386 54.4048 69.8836
23 1 46.986 57.4394 67.5078
24 1 54.2044 56.9611 71.7914
25 1 51.4413 58.003 72.4826
26 4 51.7199 55.3414 70.9122
27 2 51.7365 58.1759 69.7339
28 1 36.287 60.7443 71.5452
29 2 34.5499 58.938 72.6965
30 3 34.0993 61.5793 72.8705
31 1 39.4019 61.4393 68.988
32 2 38.089 62.6714 71.0685
33 3 38.7612 59.9785 71.2342
34 3 39.0518 58.7208 69.1365
35 1 41.0967 61.0151 71.4817
36 1 42.6869 58.7429 72.7976
37 1 43.2344 63.1302 71.2737
38 3 42.0172 62.0757 69.1196
39 3 43.667 60.5782 70.4942
40 1 45.3735 59.6689 72.3328
41 1 41.7481 59.3511 68.9906
42 1 44.1748 60.9025 67.7899
43 3 45.5557 62.2599 72.6403
44 1 45.8018 62.3141 69.9331
45 2 46.9835 60.5577 67.3105
46 1 48.7424 61.8353 69.2788
47 4 49.8076 62.4547 72.1356
48 2 47.6374 61.0624 71.6473
49 1 49.1882 59.0674 70.5202
50 3 47.6769 58.4365 72.5369
51 1 46.1852 59.4027 69.5875
52 1 49.3864 59.2335 67.655
53 2 53.6151 59.6169 71.8456
54 3 54.4184 61.9577 68.2632
55 1 53.5254 62.1764 70.7806
56 2 51.3494 60.5127 71.0003
57 1 51.708 60.9566 68.4099
58 1 54.1206 59.4816 69.3282
59 2 51.1231 63.0516 70.0412
60 3 56.0093 61.5227 70.2128
61 1 56.3204 59.0075 71.2319
62 2 58.0866 61.1391 71.7535
63 1 40.3369 50.7836 77.7313
64 1 37.7389 53.4986 73.9192
65 1 37.8627 52.2593 76.7003
66 1 40.4914 51.9573 74.8576
67 2 42.9917 50.9533 77.9385
68 1 43.5654 51.8719 75.2647
69 1 41.857 53.3632 77.2717
70 4 45.6797 52.6993 76.9444
71 1 45.3194 49.8244 77.3284
72 1 49.4715 50.7826 73.9699
73 3 50.1609 49.158 77.98
74 4 46.3252 49.9578 74.4441
75 2 48.2365 53.352 77.4667
76 1 47.3767 52.8696 74.6783
77 1 48.1287 50.6856 76.6251
78 3 49.9147 53.1963 75.258
79 1 52.1624 52.2386 73.8031
80 3 54.9602 52.8857 74.4605
81 1 51.1527 51.2777 76.5469
82 3 53.0311 52.7098 78.242
83 1 54.0732 51.2052 76.3955
84 1 55.511 53.6053 77.4476
85 2 35.8898 55.5541 73.2125
86 4 33.2137 56.8155 76.8468
87 1 35.4332 57.6292 74.9018
88 1 35.9859 54.7439 76.0583
89 2 40.2475 54.2594 73.2928
90 1 39.5966 54.5923 75.9846
91 2 37.9135 56.2826 74.7154
92 3 36.9952 57.112 76.9534
93 1 40.5411 56.7782 74.157
94 1 39.5495 57.1233 77.4455
95 3 37.8819 55.0226 77.8761
96 2 42.2564 54.5229 74.7749
97 1 44.9068 54.5922 74.1927
98 2 41.9464 56.1978 76.7234
99 3 43.4436 56.8684 74.5803
100 1 44.296 57.678 77.0054
101 2 44.0358 54.8601 76.7515
102 1 50.8166 54.0005 77.7888
103 1 46.6374 55.4617 76.7698
104 3 49.2166 55.4079 76.1144
105 2 47.7784 55.4644 74.1537
106 1 49.2226 57.7322 74.6325
107 1 46.2241 57.6117 74.7321
108 2 47.9107 57.9126 76.9306
109 3 53.4092 54.5076 72.9591
110 1 53.0754 54.1847 75.7994
111 2 53.1196 56.5837 74.33
112 1 50.8952 55.2542 73.9706
113 1 54.7005 56.8944 76.5225
114 1 51.5542 56.7589 76.599
115 1 55.6699 55.485 74.2235
116 2 53.2623 55.1836 78.3178
117 2 56.0358 58.2497 73.8022
118 2 57.3699 55.5473 76.8691
119 1 57.3493 58.223 76.1461
120 3 57.9675 57.538 78.5304
121 1 33.0599 62.8492 78.377
122 1 33.1174 59.6577 75.0906
123 1 35.879 63.1366 76.7948
124 1 35.9307 60.6589 74.6671
125 3 34.3771 60.9935 76.9393
126 1 33.3887 62.81 75.1799
127 2 31.4519 61.4834 76.5382
128 4 34.9519 58.5421 77.5018
129 1 32.4412 59.6022 78.2132
130 3 41.1239 63.1463 73.1869
131 2 39.6517 62.8549 77.7294
132 2 40.1872 59.465 73.5519
133 1 38.6937 61.6447 73.4388
134 1 38.3201 58.9522 75.3681
135 2 36.7371 60.1723 77.3384
136 1 39.5941 60.05 77.8166
137 1 40.8629 61.8113 75.5067
138 2 38.1194 61.7151 76.0988
139 1 45.0361 62.6034 78.4826
140 1 41.7309 58.9126 75.8174
141 2 44.3661 59.4546 74.7999
142 1 45.2411 62.2269 75.2747
143 3 43.4845 60.7397 76.5709
144 4 43.0717 61.4817 73.6672
145 1 42.0488 61.5997 78.4407
146 2 49.7687 60.0372 73.0839
147 1 46.1395 59.9522 76.9459
148 2 48.9605 60.0557 76.4526
149 1 50.6646 58.9957 78.2434
150 1 49.9663 62.2009 75.1209
151 3 50.0049 61.6029 78.144
152 1 47.7256 62.5381 77.0219
153 1 47.4551 60.5322 74.2968
154 4 53.6616 58.9116 74.2478
155 1 52.2808 61.3376 73.4449
156 1 55.5444 61.2208 72.9912
157 5 51.2644 59.4373 75.332
158 2 53.9304 62.8185 74.8008
159 1 52.3832 61.6464 76.8295
160 3 53.2373 59.1261 77.0013
161 1 55.2101 60.392 75.8609
162 3 55.6475 58.8243 78.2581
163 1 59.73 59.5869 77.4388
164 3 57.4315 61.0606 77.1067
165 1 59.544 62.4553 76.2361
166 1 58.0739 60.502 74.4582
167 1 36.6154 53.1174 79.2808
168 1 39.7471 51.086 82.8241
169 2 39.5051 53.4518 81.2065
170 1 37.1615 52.8255 82.3041
171 1 38.642 51.0809 80.0914
172 3 39.4248 53.2696 78.6551
173 4 44.1116 53.1672 78.9929
174 2 44.932 52.6825 81.338
175 3 41.2753 53.1745 83.0298
176 1 41.661 52.2799 80.1998
177 1 42.7815 50.9972 82.7437
178 1 44.1757 50.1482 80.279
179 3 41.1877 49.7612 80.5798
180 1 43.9569 53.5336 84.0646
181 1 45.8632 51.3101 83.4242
182 2 44.6819 48.9089 83.2978
183 5 47.6864 48.8234 78.8153
184 4 49.4061 51.5071 78.9846
185 1 50.72 51.2503 83.4547
186 1 48.2696 52.0686 81.6513
187 5 46.6117 51.4926 79.3241
188 5 50.0436 49.6633 80.9583
189 1 46.863 49.3815 81.4443
190 3 48.3178 49.9657 83.6485
191 1 55.4509 52.2067 82.3776
192 1 51.5647 52.5027 80.4706
193 2 54.7317 51.6321 79.6712
194 1 53.1351 50.4032 81.8727
195 1 52.5081 50.099 78.9479
196 2 52.8844 53.088 82.8024
197 3 56.5101 53.51 80.1312
198 3 57.6842 53.402 83.5352
199 1 35.3551 55.886 78.8363
200 1 35.9027 57.1873 81.9135
201 4 33.2326 56.3385 81.596
202 2 34.3298 58.1456 79.9111
203 2 35.3566 54.5964 81.3256
204 1 35.3993 54.7433 84.1293
205 1 40.9848 55.2979 79.3637
206 1 40.2574 55.6469 82.4904
207 3 39.865 57.5439 80.1358
208 1 38.7329 58.1508 82.4141
209 3 37.6966 55.4444 83.0473
210 1 37.3777 58.3349 79.3054
211 1 38.0069 55.5518 80.405
212 1 42.1599 57.6781 81.7299
213 1 45.3458 56.245 81.8875
214 5 43.8454 55.9862 79.2368
215 1 42.9246 54.6224 81.5866
216 3 43.699 56.3518 83.9784
217 2 50.5777 56.6178 83.0006
218 1 48.3592 56.0682 81.548
219 3 49.7086 58.1675 80.6454
220 1 46.4169 57.4705 79.2136
221 4 50.2547 53.9943 82.5308
222 4 46.6904 54.0329 83.0017
223 1 46.6097 54.3919 79.6705
224 3 49.254 53.9856 79.9861
225 4 47.2745 57.3481 84.1053
226 1 49.1551 56.3381 78.6324
227 1 51.4813 55.7217 80.4906
228 1 53.2492 57.7082 79.132
229 1 53.201 55.723 83.1661
230 4 53.9771 54.132 80.5812
231 2 54.5126 56.962 81.3137
232 3 54.0991 58.3375 83.3462
233 1 56.1568 55.1957 82.3619
234 1 60.0369 57.9662 80.1158
235 5 57.3205 57.6592 81.0631
236 1 56.6648 57.9217 83.7441
237 1 59.0524 55.9082 82.817
238 1 58.5362 55.2534 79.9486
239 1 55.8061 56.058 79.1643
240 1 35.6679 62.1239 82.4497
241 1 32.7176 62.0441 83.2875
242 3 33.7042 62.9893 81.0088
243 1 34.854 60.7753 79.5869
244 2 31.9007 58.5346 80.6498
245 1 33.8421 59.6028 82.1908
246 3 32.2388 61.1245 80.5084
247 1 36.3603 59.4661 83.8693
248 2 36.7163 59.8544 81.2999
249 1 40.4012 62.8351 80.4844
250 1 38.7317 61.2098 82.5395
251 1 37.7185 61.6109 79.4184
252 3 40.9154 59.8621 83.006
253 2 40.0545 59.9687 80.5003
254 2 45.6497 61.7456 83.6287
255 1 43.8234 63.1894 82.3917
256 1 45.6418 60.9739 80.8891
257 3 41.3 62.404 82.9413
258 1 42.6958 60.6632 81.1707
259 3 44.2759 59.9811 78.7704
260 1 42.0506 58.4534 78.842
261 3 44.3571 58.4138 80.5029
262 1 44.7029 58.9433 83.1028
263 4 47.3384 58.8629 81.8052
264 1 50.3406 60.9021 80.7048
265 1 48.0775 61.9782 82.4392
266 2 48.0349 62.5495 79.6941
267 1 49.6943 59.1724 83.449
268 1 47.9799 59.951 79.1729
269 1 52.1161 58.6148 81.7194
270 3 54.0515 62.8722 83.7854
271 2 50.9274 62.3132 82.8583
272 3 55.0877 60.6117 83.5629
273 1 53.1712 61.6006 81.6251
274 3 51.9899 62.7397 79.3302
275 1 55.0964 59.4934 80.9445
276 2 52.7347 60.3308 79.3016
277 1 55.0086 61.5235 78.5822
278 1 57.74 60.0874 79.5002
279 4 55.8801 62.3709 81.2508
280 3 59.2424 62.6033 82.9944
281 2 59.4975 58.5343 82.7488
282 1 57.6418 60.428 82.4911
283 1 60.3882 60.7175 81.2144
284 3 58.3214 62.3167 80.7304
285 1 56.7213 63.0126 83.9096
286 3 59.7572 61.9921 78.8346
287 3 39.0293 52.6207 87.3023
288 1 38.9424 53.6002 84.5625
289 2 45.8026 52.6132 85.9344
290 1 41.9223 52.3202 88.5732
291 2 43.3067 53.1971 86.5741
292 5 41.1606 52.0321 85.5275
293 1 44.7911 51.1067 88.2781
294 1 43.7196 50.6403 85.5715
295 4 47.8488 51.7407 87.9058
296 1 48.3743 52.377 84.9733
297 1 46.6269 49.9522 85.8911
298 1 50.7658 51.7984 86.7028
299 2 49.6013 52.9618 89.6984
300 3 53.2229 53.1949 87.0759
301 1 53.2966 51.3788 84.9077
302 3 35.1442 56.4169 86.5043
303 1 36.2269 56.9355 88.9804
304 1 34.0068 57.5464 84.3872
305 1 40.517 56.8298 89.7513
306 3 38.6572 56.8371 87.7962
307 1 39.1794 56.7028 85.2138
308 1 40.5204 54.715 87.4837
309 1 37.2543 54.8592 86.6475
310 3 38.3559 54.7836 89.1459
311 3 36.676 56.964 84.5845
312 1 45.2856 53.9481 88.2264
313 1 41.7645 58.0656 84.673
314 1 43.2388 57.8494 89.0045
315 1 44.8289 58.2228 85.9719
316 2 41.1706 57.2935 87.168
317 1 43.4232 55.8247 86.8543
318 3 42.6285 55.0339 89.3179
319 5 41.6012 54.9693 84.8828
320 5 45.8757 55.3477 85.417
321 1 50.7127 54.6066 87.8468
322 2 46.1565 56.5099 87.939
323 2 47.4762 58.3114 86.6036
324 1 48.7467 57.6825 88.9021
325 4 49.4475 56.7198 86.1834
326 4 47.9396 54.4503 87.1074
327 4 48.7536 55.1173 84.3977
328 1 54.9261 53.8049 84.8784
329 1 54.7926 57.3557 88.2411
330 1 51.97 57.5946 85.0909
331 1 51.6887 57.4722 88.1158
332 2 54.9531 56.4747 85.1687
333 2 53.1924 55.6787 86.6284
334 1 53.3041 54.8217 89.3445
335 1 51.5626 54.1387 85.0402
336 1 57.7159 58.0227 88.9744
337 1 55.753 54.7441 87.6071
338 2 56.7744 57.8284 86.5215
339 1 57.5596 55.4458 85.3699
340 1 59.1991 58.0394 85.4699
341 1 34.1185 58.7604 87.3506
342 1 35.2609 61.4974 87.2695
343 3 34.8433 62.8175 84.9073
344 2 34.1592 60.362 85.0173
345 4 32.6934 62.6332 86.2019
346 2 40.9928 59.5602 89.6123
347 2 38.4275 58.5096 89.5855
348 3 36.3404 59.7081 88.9337
349 1 36.8945 58.6657 86.583
350 1 40.5642 62.1024 88.4832
351 1 40.3819 61.5719 85.3857
352 2 37.9297 61.5575 87.6724
353 1 37.3594 61.8587 85.1287
354 1 39.5222 59.4028 87.363
355 3 39.0045 59.3964 84.737
356 1 45.2747 61.1091 86.7821
357 3 42.6972 62.3197 86.8474
358 1 43.5234 61.0775 89.4906
359 1 45.9974 59.0044 88.938
360 1 42.4006 59.7683 87.037
361 1 43.0938 60.9628 84.3806
362 3 49.95 62.9754 87.2931
363 2 49.4327 62.422 89.5962
364 3 46.1685 61.664 89.3613
365 1 49.5426 61.6958 85.0707
366 2 47.1822 62.8571 85.5646
367 1 50.605 60.1581 89.0111
368 1 48.1524 60.7968 87.533
369 5 47.1516 60.0541 84.7205
370 2 50.1432 59.2702 86.3452
371 1 51.9844 62.9094 88.9706
372 1 54.5102 61.9711 86.2629
373 1 54.8906 62.1478 89.5164
374 3 51.7577 61.1767 86.7824
375 1 54.4474 59.0384 85.8464
376 1 53.4163 59.9511 88.4547
377 1 52.3861 60.4998 84.2753
378 1 59.0823 62.8678 85.7311
379 2 56.1382 59.9954 87.9765
380 1 57.1177 60.4258 85.4113
381 1 59.0473 60.3121 87.5656
382 2 56.985 62.2782 87.4321
383 2 59.7668 60.5389 84.3835
384 2 43.8405 53.0688 90.4522
385 1 46.5443 52.4583 90.4731
386 1 40.5367 54.017 90.6269
387 3 40.4871 56.1114 92.447
388 1 38.0252 56.3637 91.3004
389 1 44.9293 55.8274 90.4124
390 1 44.5803 57.0545 93.4217
391 3 44.7432 58.2827 91.1491
392 1 41.8006 57.8825 94.0294
393 3 42.5672 56.9604 91.4275
394 1 42.8981 54.6535 92.4512
395 1 46.0514 54.4497 92.6551
396 5 50.6867 55.7387 90.5669
397 1 47.2722 57.6858 91.7507
398 1 49.2622 58.3152 94.2447
399 4 47.0962 56.4353 94.668
400 4 49.0119 55.3744 92.8319
401 1 47.8233 55.0844 89.9977
402 2 54.2602 58.3989 93.0705
403 1 51.7334 56.8334 93.3073
404 1 53.1194 57.4888 90.7804
405 2 55.7798 56.3808 90.5456
406 5 35.4522 61.8564 90.2151
407 1 36.6282 59.1267 91.521
408 3 40.9552 61.5105 91.2683
409 3 38.3653 61.0772 92.8544
410 1 39.6895 58.8293 92.0407
411 1 38.3835 61.1053 90.2372
412 1 40.9094 61.048 93.929
413 3 36.961 63.0841 92.0177
414 3 39.0636 63.1938 93.9459
415 1 45.7106 60.5467 91.7433
416 2 43.2823 61.6042 95.5186
417 1 43.432 62.2565 92.8081
418 2 44.0995 59.7465 94.0265
419 1 42.6008 59.5378 91.8029
420 1 50.439 61.5773 91.8727
421 1 49.2421 61.253 94.8108
422 1 47.6911 62.8984 91.4265
423 1 46.3194 62.0405 94.1932
424 3 48.2285 60.2755 92.6192
425 1 50.2102 58.5637 91.4479
426 2 46.5771 59.1672 94.1319
427 2 48.1167 60.2178 90.2249
428 1 55.5909 59.3611 90.6797
429 2 51.9158 62.69 93.9083
430 1 51.9492 59.8581 93.7502
431 2 52.6645 60.109 91.0343
432 1 54.6062 61.2045 92.8255
433 3 52.9729 62.4717 91.3675
434 1 57.7281 61.4904 89.9918
435 1 35.0842 66.1845 72.0211
436 1 35.4059 63.4167 70.6883
437 3 33.6814 64.0481 72.7731
438 1 39.98 66.7944 71.9504
439 3 37.3434 67.7942 71.8215
440 2 39.8582 66.3674 69.1868
441 1 37.6305 65.3814 70.7884
442 1 40.8492 64.1508 67.7849
443 1 40.3986 63.9236 70.6715
444 3 38.2771 63.8687 68.7253
445 1 43.8107 63.8511 68.2136
446 1 42.5589 65.9468 70.0862
447 3 45.0539 64.9203 70.6026
448 3 42.1122 65.3467 72.5862
449 1 45.5848 66.2196 68.202
450 1 42.6977 66.5432 67.2774
451 3 44.2394 67.0037 72.0302
452 2 47.4896 64.554 69.3223
453 4 48.5065 66.5325 67.8892
454 1 46.8016 66.8391 70.9612
455 2 49.1313 67.0823 72.3895
456 1 49.8626 65.3137 70.5277
457 1 47.4065 63.988 71.871
458 4 49.7204 63.896 67.6332
459 1 46.59 63.2648 67.205
460 4 52.6091 63.8377 67.9518
461 1 51.9274 67.5576 70.7628
462 4 54.7104 67.3941 70.0344
463 1 55.3169 64.0612 72.6198
464 3 52.7421 65.1128 70.219
465 1 55.1519 64.3504 69.6432
466 4 51.3721 66.4385 68.2133
467 3 54.1129 66.4551 72.3371
468 1 52.3104 64.2332 72.5937
469 3 56.6103 66.04 71.382
470 2 57.4261 63.5215 70.9026
471 1 39.5011 69.1775 70.3989
472 2 40.213 72.051 71.8071
473 2 41.0144 69.9468 72.8245
474 3 42.0622 68.3063 71.2676
475 3 41.5317 68.2966 68.862
476 2 44.8259 71.2538 69.8401
477 1 41.984 70.7264 70.0401
478 1 43.6971 70.2578 72.3699
479 1 44.203 68.4845 69.679
480 1 46.377 72.7515 71.6965
481 1 48.8776 71.4961 70.5238
482 1 46.5916 69.7337 71.3559
483 1 49.1663 68.4706 69.971
484 3 46.7534 68.7301 68.7728
485 1 50.2038 69.5656 72.6495
486 1 51.4219 72.2866 71.9332
487 2 51.3924 70.2203 69.971
488 1 53.3354 69.8443 72.0186
489 3 55.9017 68.2385 72.5128
490 5 43.2261 73.0414 71.354
491 3 53.9492 72.7961 72.6086
492 3 34.3981 67.7235 76.5499
493 1 32.815 65.5143 77.1932
494 1 34.7616 65.5039 74.9723
495 2 35.2434 65.4943 78.2275
496 1 36.9646 66.8226 76.4818
497 1 39.3428 67.3662 74.7038
498 2 39.6278 66.2852 77.3188
499 2 37.2508 66.0447 73.6804
500 1 38.4519 64.298 75.5545
501 2 39.0328 64.4227 72.9689
502 1 36.3146 63.4252 73.4722
503 1 37.8107 64.5759 78.5043
504 5 43.8778 66.3463 75.6748
505 3 41.5922 67.7437 76.5474
506 1 42.2131 67.7712 73.8449
507 5 44.2581 65.4733 78.2022
508 1 41.2253 65.0993 75.0857
509 3 45.9226 64.6899 76.1686
510 4 41.4168 64.6532 78.1034
511 4 43.1346 63.5529 76.3734
512 1 44.4687 64.5909 73.4953
513 1 49.6819 64.8566 73.8223
514 1 49.326 67.5349 75.1897
515 1 46.8031 67.5 76.7422
516 1 46.8944 66.1078 73.9711
517 1 50.4403 64.1268 77.5924
518 2 48.4278 65.173 76.2304
519 2 47.4781 63.3612 74.4355
520 1 51.7925 66.9991 73.5938
521 1 51.8137 66.6476 76.6241
522 3 54.2485 66.8603 77.6013
523 1 53.869 64.1329 77.5236
524 2 51.9226 64.1974 75.317
525 1 54.3163 65.6212 75.0154
526 2 56.007 67.6895 76.0935
527 1 59.9846 64.79 78.2563
528 1 58.6418 67.2725 76.7985
529 1 57.0766 66.1742 74.0801
530 3 56.3504 65.5485 77.1281
531 1 58.2579 63.4102 73.5021
532 3 58.4379 64.8027 76.0015
533 1 56.3455 63.1968 75.7153
534 1 35.7203 68.3377 74.0857
535 1 36.0382 69.6193 77.6496
536 4 36.1162 71.2908 75.0177
537 1 40.7 71.6773 76.8933
538 3 37.9792 71.2545 76.8148
539 1 39.012 72.2479 74.5101
540 3 40.331 69.7774 75.1481
541 2 37.726 69.304 75.4848
542 1 39.2442 68.9257 77.5653
543 1 38.3488 69.8485 73.013
544 1 41.9754 72.4582 74.0185
545 1 45.95 70.8306 74.1729
546 3 45.834 70.0595 76.6888
547 3 44.6818 72.3762 75.8884
548 1 43.6836 71.5327 78.162
549 1 43.048 70.1648 75.5089
550 4 45.0917 68.2456 74.1999
551 3 41.7371 69.638 78.2636
552 1 44.057 68.4227 77.6927
553 2 47.6641 68.7733 73.5565
554 3 48.2835 71.3948 73.1198
555 2 50.443 71.7009 74.3465
556 1 46.9049 72.2623 77.6285
557 1 48.4968 70.4412 75.6579
558 2 50.3574 68.8712 77.177
559 1 54.1773 68.5213 74.5068
560 1 51.1406 71.4186 77.0197
561 4 53.9912 72.4841 77.2713
562 1 53.147 71.3412 74.7218
563 2 51.476 69.3152 75.0229
564 1 53.2953 69.312 77.3197
565 5 56.8886 72.3005 78.1448
566 4 57.6914 71.9133 75.3703
567 1 55.8248 70.9206 73.3144
568 4 55.7155 70.424 76.344
569 1 57.7006 69.0548 74.5582
570 2 58.3647 70.0194 77.3077
571 1 56.4234 68.4706 78.5429
572 1 40.6569 74.7433 75.5673
573 1 38.3093 73.7863 77.1469
574 2 40.8121 73.8937 78.3455
575 4 39.5071 76.1922 78.241
576 3 44.5302 72.9195 73.5509
577 3 44.5257 77.1474 76.6687
578 1 45.0677 74.5519 77.5033
579 2 42.6651 73.4447 76.6995
580 1 43.7823 75.0764 74.8682
581 2 45.9308 75.1333 72.9766
582 1 42.4225 75.9979 77.7574
583 1 46.7321 77.0611 78.2592
584 1 46.9489 73.4887 74.923
585 3 49.3751 73.1391 76.0563
586 3 47.8472 74.7639 77.2227
587 1 49.5646 75.7349 75.5675
588 5 46.6542 76.3259 75.3572
589 1 49.1055 73.9384 73.0417
590 4 55.1271 73.427 75.0015
591 1 51.7072 74.4921 77.4355
592 1 51.8602 74.0107 74.4878
593 1 35.4336 65.5695 81.1478
594 2 33.8867 66.977 83.082
595 1 32.7385 65.2664 80.2278
596 2 35.5944 63.3885 79.5666
597 2 33.9941 64.409 83.0872
598 1 34.1383 67.7545 79.2831
599 2 40.4642 67.622 82.5077
600 4 37.9711 66.5692 82.1074
601 4 39.6477 65.9488 80.1097
602 2 39.2613 63.625 83.6905
603 1 37.8275 63.8623 81.4081
604 1 37.2214 67.4133 79.3906
605 1 36.6857 64.656 84.0963
606 1 45.6104 67.5626 82.9453
607 2 42.9236 67.6378 82.1318
608 2 43.7808 65.7301 83.745
609 1 42.0871 67.0633 79.4509
610 1 44.4852 65.679 80.9966
611 1 41.5062 65.1586 82.0915
612 3 42.9809 63.6775 79.9559
613 1 46.1168 67.7744 79.739
614 2 48.4692 67.048 83.5052
615 5 47.8039 65.8699 81.2866
616 1 49.9987 64.0844 80.5521
617 1 49.49 64.4876 83.4384
618 2 46.2758 63.6501 81.0992
619 1 46.5147 64.7529 83.6781
620 1 49.3099 66.7982 78.7401
621 1 47.0388 64.9164 78.6856
622 1 50.9052 67.0817 82.1385
623 1 54.1929 67.2822 82.3309
624 1 52.3497 65.9038 79.574
625 2 55.1895 64.7325 82.2978
626 1 52.4624 64.5429 82.3504
627 2 54.0043 63.6761 80.205
628 1 55.4035 65.7792 79.7326
629 1 60.5491 63.7414 80.9312
630 2 59.8166 66.4305 81.1159
631 1 56.9169 66.1301 84.1316
632 1 57.118 67.6182 81.3543
633 5 59.6875 65.1211 83.7105
634 1 57.7714 64.7004 81.509
635 2 57.9275 66.1161 79.1467
636 1 57.3181 63.4614 78.57
637 3 34.8474 70.3326 80.0537
638 5 35.6425 68.4873 81.7211
639 1 34.6721 69.9235 83.988
640 1 36.3642 71.5389 82.081
641 3 39.0529 71.4778 81.4685
642 1 38.9192 71.6251 84.0897
643 2 37.4218 69.9128 80.1699
644 1 40.0624 69.0828 80.3515
645 1 38.2368 69.1809 82.8077
646 2 38.9925 71.3257 78.9603
647 1 36.5064 72.2774 79.0611
648 1 41.3275 71.864 80.0232
649 3 45.7712 70.3765 79.2206
650 1 43.6996 72.3153 81.7791
651 1 41.3572 70.3181 82.8453
652 2 45.8997 69.8784 81.6161
653 5 44.1013 69.9859 83.5524
654 1 43.4473 69.6024 80.5021
655 1 47.4538 69.6316 83.9662
656 3 46.0415 71.7941 83.2808
657 4 50.1478 71.1122 80.7798
658 1 48.7008 72.6027 83.5904
659 1 47.451 71.8749 80.9169
660 1 50.5004 69.914 83.4796
661 1 48.4991 68.7617 81.3161
662 1 48.3115 69.831 78.5685
663 4 53.9582 72.7545 81.7925
664 2 52.465 68.1623 84.2339
665 1 51.3641 68.8215 79.5921
666 4 51.51 72.4598 82.4904
667 4 52.8417 69.9558 81.6331
668 4 54.8573 70.8339 79.4134
669 4 52.3873 71.9885 79.5511
670 1 55.6181 70.1173 82.1013
671 2 54.0613 68.2385 79.833
672 3 58.0234 71.1797 82.8164
673 1 56.6629 72.7779 80.9986
674 1 58.078 70.3894 80.1715
675 1 59.5535 68.8846 82.3751
676 2 57.2332 68.7431 83.7696
677 3 59.2525 68.1665 79.3503
678 1 40.8144 73.5198 82.563
679 3 37.9094 73.6839 82.6797
680 1 38.8216 73.8396 80.1774
681 5 41.3142 75.5784 80.5016
682 2 45.5214 77.0177 82.7165
683 5 43.2143 75.2481 82.6806
684 1 44.5457 76.0525 80.1177
685 1 45.936 74.262 82.2479
686 3 45.2753 72.8477 79.7824
687 2 43.0699 73.8795 79.5135
688 1 49.4971 76.1816 78.9521
689 3 47.2671 76.623 81.0096
690 1 49.6623 76.979 81.9586
691 5 47.9689 75.4551 83.7032
692 5 47.1188 74.5372 79.6454
693 2 49.0381 74.288 81.4348
694 1 49.5009 73.1147 78.8669
695 2 53.5004 73.9411 84.1839
696 4 54.4478 74.1153 79.3889
697 1 50.9882 74.978 83.5579
698 1 51.6537 74.7711 80.5695
699 2 55.8619 73.0679 83.623
700 1 35.5251 66.3327 88.112
701 1 34.1478 65.4177 85.6175
702 2 36.2728 64.0364 86.6951
703 5 34.0937 63.8562 88.4074
704 1 36.3122 67.4784 84.5569
705 1 40.5169 66.646 87.0709
706 1 38.4836 66.9294 89.1764
707 3 37.6959 66.3293 86.5648
708 3 40.0058 64.7523 89.0286
709 1 37.3891 63.8861 89.1263
710 1 39.0355 64.0229 86.5514
711 5 39.3693 66.1496 84.395
712 1 43.8021 66.2009 86.4744
713 2 43.085 66.0608 89.1141
714 2 41.9418 64.4332 87.5904
715 1 44.5297 63.768 88.3168
716 1 44.4389 63.5251 85.3077
717 1 41.6489 64.3689 84.9399
718 1 42.0621 67.8039 84.684
719 3 46.1784 65.054 86.5762
720 5 50.2907 67.404 88.2305
721 1 49.8321 67.9528 85.5753
722 3 47.7086 66.4906 88.0245
723 5 46.8144 67.2186 85.5595
724 1 48.9208 65.1414 86.1358
725 5 49.5645 65.0574 89.3895
726 1 47.4546 63.6065 88.2888
727 1 51.9103 63.4497 85.3601
728 3 55.6682 66.534 86.7527
729 1 54.8188 66.9784 89.1996
730 1 52.8701 67.3148 86.7809
731 3 52.2938 66.0002 89.4231
732 3 51.2917 65.1543 87.3043
733 1 53.8914 64.5561 87.6108
734 3 51.3922 65.97 84.7041
735 1 54.0976 65.4573 84.7523
736 2 56.1956 64.2136 86.145
737 1 57.8973 67.0581 89.3396
738 1 58.4671 65.6257 86.7049
739 1 56.5538 64.4929 88.8926
740 3 59.2297 67.5264 84.7425
741 2 59.1168 63.4226 88.4768
742 3 34.3936 68.1848 86.2387
743 2 38.787 68.4221 85.4754
744 1 36.3233 72.7227 84.8661
745 1 41.0681 71.1834 88.4497
746 1 38.3765 71.7164 87.0616
747 1 38.179 70.2601 89.802
748 4 40.625 69.9826 85.776
749 3 39.4947 69.0488 87.8332
750 1 36.783 68.9438 87.4458
751 2 37.0083 70.1384 85.103
752 1 45.4522 68.0569 88.2233
753 4 41.2637 72.4156 85.2798
754 1 45.9448 71.042 85.9939
755 1 44.2441 70.9583 88.4102
756 2 43.0954 70.5969 85.9426
757 2 44.6594 68.6396 85.6581
758 1 42.4744 68.6073 87.8894
759 1 47.2527 71.1725 88.8136
760 1 49.0842 70.9866 86.0298
761 1 50.1178 70.1782 88.6136
762 2 47.8085 68.9694 87.2107
763 2 55.0118 68.2178 84.8492
764 1 54.6704 71.4554 89.5316
765 1 54.4371 72.7559 86.571
766 3 52.4575 71.4884 87.9479
767 1 51.5215 72.4544 85.4462
768 5 54.4844 69.7335 87.0332
769 2 51.7434 69.7856 86.3036
770 1 52.7186 69.0124 89.3518
771 1 53.5471 70.6864 84.3111
772 1 57.3605 68.4767 86.5851
773 1 57.1057 71.4057 87.6813
774 2 56.2357 69.2214 88.9492
775 1 59.1986 70.241 85.0802
776 1 56.3512 70.8979 84.9936
777 1 40.4986 74.0932 87.5829
778 2 39.2876 72.9032 89.7161
779 1 38.9842 74.3742 85.0858
780 3 42.8398 72.8879 87.1606
781 1 43.9642 72.9505 84.6591
782 3 44.8734 74.9765 89.7688
783 4 43.1225 75.5854 87.5916
784 1 45.2955 73.6835 87.486
785 1 42.56 73.371 89.8125
786 1 45.0141 75.6989 85.0815
787 2 41.9755 74.9454 85.1581
788 3 47.0907 77.5666 84.7696
789 1 50.2296 73.0869 88.0709
790 2 47.8027 73.0505 86.9712
791 5 47.4132 75.6998 86.7511
792 2 49.8314 75.7525 88.0802
793 1 49.7089 76.9388 85.3893
794 1 47.6176 74.2621 89.4476
795 3 49.4454 74.2595 85.6776
796 3 46.6175 73.5711 84.9516
797 1 52.9523 74.0358 88.9714
798 1 52.0295 75.2075 86.4148
799 1 35.3263 64.9932 90.8371
800 1 36.1275 67.9854 90.5462
801 2 37.7999 65.7736 91.5488
802 1 39.5974 65.8457 93.6558
803 1 39.4307 63.6424 91.3696
804 1 40.9895 66.3418 91.0312
805 3 43.8882 67.7851 93.629
806 2 42.2004 66.174 94.3349
807 1 43.8099 65.474 92.1887
808 1 44.1874 64.215 94.9529
809 2 41.5487 64.1123 92.8335
810 1 42.3096 63.6864 90.2721
811 1 45.6834 66.7279 95.1843
812 1 41.3014 63.6684 95.3508
813 2 45.0844 63.2884 90.9978
814 1 46.1767 67.668 92.3298
815 1 50.6369 67.3613 91.1107
816 1 48.587 66.6953 94.4419
817 2 48.459 65.8382 91.7077
818 5 46.4421 64.8206 93.1099
819 2 47.3012 64.2782 95.616
820 1 49.3496 63.9514 93.6903
821 1 46.1264 65.6951 90.0714
822 1 53.3345 66.8803 92.0323
823 3 51.1657 66.1373 93.6185
824 1 51.3391 64.4689 91.5149
825 1 54.0423 64.2128 93.1054
826 3 54.0787 64.5919 90.4345
827 1 56.2242 65.9852 91.6694
828 3 58.3564 64.4113 90.7755
829 2 56.1939 63.2058 91.6209
830 1 38.7867 68.345 92.0274
831 1 40.4621 71.1914 91.5321
832 2 40.7424 68.8289 90.0173
833 1 41.5965 68.7875 92.8987
834 1 45.3335 72.5121 90.8199
835 3 42.8657 72.3224 92.302
836 1 44.5162 70.2605 92.8632
837 2 45.6469 69.6961 90.4404
838 1 43.5702 68.0533 90.7585
839 2 42.8398 70.5411 90.5703
840 3 48.6062 68.4077 92.5128
841 1 50.7743 68.8938 93.7184
842 2 49.1292 72.1446 90.4485
843 4 47.138 69.3736 94.6315
844 1 47.5474 70.7821 92.0838
845 3 50.1299 71.5479 92.873
846 3 50.039 69.8714 91.1799
847 1 48.0073 68.3362 89.9477
848 1 55.2243 69.0599 91.4009
849 3 52.5635 69.5404 91.9358
850 1 51.8696 71.8105 90.7109
851 1 50.4387 74.4748 90.6376
