# LAMMPS data file written by OVITO Pro 3.7.7
1742 atoms
5 atom types
0.0 250.0 xlo xhi
0.0 90.51 ylo yhi
0.0 181.02 zlo zhi

Atoms  # atomic

1 2 26.2712 37.1846 74.3512
2 1 31.7342 35.7241 74.5479
3 3 29.0082 36.5202 74.4051
4 2 29.5617 33.8827 74.6562
5 1 34.6622 36.3148 75.0888
6 4 33.6213 37.3378 72.5111
7 2 36.6341 36.158 73.2478
8 3 25.8045 40.2184 73.121
9 4 23.7828 38.5137 74.5511
10 1 23.9676 41.7136 74.7972
11 1 26.9976 41.7745 75.0086
12 3 29.4957 41.7009 74.2058
13 1 30.8775 38.1736 73.096
14 1 28.0649 41.6512 71.985
15 1 28.3213 39.2162 73.9612
16 1 30.9796 40.9702 72.1487
17 3 31.1973 40.2125 74.8919
18 2 32.8046 38.2336 75.01
19 4 33.4575 40.2776 73.6126
20 1 35.9234 38.7979 73.5428
21 2 33.4111 42.4628 72.1813
22 1 35.9696 41.8007 73.265
23 2 38.5235 40.0312 73.8095
24 1 41.2381 41.7378 74.8403
25 2 22.2586 47.0628 73.1973
26 1 22.9732 44.2579 73.7078
27 5 25.5331 42.9463 72.5902
28 3 24.007 46.5443 74.8653
29 1 26.0753 44.6415 74.9863
30 5 25.0599 45.774 72.4383
31 3 26.7953 47.1909 70.9761
32 1 27.6164 44.6304 71.2748
33 3 28.3071 43.8208 73.6137
34 5 29.4825 46.9072 71.8179
35 3 27.4829 46.3087 73.3965
36 1 30.0686 45.6616 74.4172
37 1 30.5689 44.016 71.8562
38 1 31.8087 42.9382 74.3772
39 2 32.0285 46.9211 71.3501
40 3 32.3744 45.4413 73.4137
41 1 34.5539 44.2429 74.2326
42 1 33.7694 44.893 71.2342
43 1 34.407 47.1112 73.1608
44 5 36.5511 44.5227 71.9292
45 2 35.433 47.2112 70.712
46 1 38.761 42.8212 73.4634
47 2 37.2685 44.9827 74.3775
48 2 39.6414 45.4725 73.2636
49 1 37.3882 47.2938 72.7937
50 1 38.7552 47.0963 75.3807
51 1 42.2247 44.6451 74.3185
52 3 43.966 46.9448 75.0704
53 1 20.3812 48.4196 75.0651
54 1 24.7647 48.5673 72.4005
55 2 26.3997 51.0489 71.1293
56 1 23.1985 49.2435 74.8212
57 5 26.167 47.9994 74.9168
58 1 25.6004 51.1644 73.7928
59 3 23.3862 51.9442 75.1656
60 1 27.6887 49.0981 72.5667
61 1 28.6544 51.8502 72.8513
62 3 28.9649 48.0432 74.4718
63 1 30.5812 49.7701 71.7501
64 2 30.2885 50.2538 74.4631
65 5 31.6404 48.0778 73.7908
66 5 33.4277 49.1756 71.3368
67 1 35.8773 49.9227 72.7842
68 2 34.4469 48.9936 75.0158
69 1 32.8106 50.7629 73.8129
70 3 33.8408 51.7836 71.5946
71 1 35.3922 51.7807 75.1596
72 1 39.0475 49.7038 73.7531
73 2 40.5303 51.4932 75.2018
74 2 41.0494 47.6413 73.8957
75 3 36.9224 49.2438 75.211
76 1 42.7735 49.4223 75.3282
77 1 24.6515 54.2017 74.3775
78 1 26.765 56.329 73.9022
79 1 26.4614 53.7278 72.1239
80 2 31.3269 52.5516 72.0599
81 1 29.2019 54.8723 72.6967
82 2 27.4353 53.4769 74.7207
83 1 30.6505 53.0807 74.6967
84 3 31.8883 55.4992 75.1841
85 2 31.8546 55.3361 72.4298
86 1 33.5271 53.6671 73.6051
87 2 36.0261 52.6727 72.4987
88 2 36.0789 54.5735 74.2209
89 1 33.9398 56.7547 74.0163
90 1 38.1834 52.5802 74.2381
91 2 38.5445 55.4024 74.4605
92 1 30.7862 57.4476 73.8104
93 4 26.12 32.4225 78.0643
94 4 22.6184 32.5369 80.0202
95 1 28.8988 32.9022 77.3969
96 2 30.8714 31.7581 79.0038
97 4 28.2552 31.3121 79.7599
98 4 34.0629 32.0033 78.8776
99 2 36.7997 32.8422 79.053
100 2 19.8093 37.2638 78.4205
101 1 22.0787 37.7198 76.8918
102 5 24.5421 34.4923 76.8515
103 4 22.584 35.4583 78.6014
104 1 24.9088 37.3116 77.2984
105 1 26.9232 35.3391 78.516
106 3 24.7444 34.0878 79.6087
107 1 27.1409 34.8525 75.6095
108 1 31.7992 33.2326 76.2677
109 1 29.8559 35.5525 76.9237
110 1 29.9176 37.8935 78.7339
111 1 27.7637 37.701 76.6448
112 2 29.3045 34.684 79.5055
113 1 31.978 34.221 78.9691
114 1 34.5283 34.3039 77.2237
115 5 32.4958 36.6211 77.2907
116 4 33.5633 36.6639 80.0498
117 2 35.0485 34.5923 79.9222
118 4 35.1173 37.2373 77.9903
119 3 36.7735 34.681 75.574
120 1 37.5304 37.3239 75.5715
121 1 39.6556 34.1453 79.4646
122 1 37.2606 35.3699 78.1408
123 2 39.5568 36.6251 77.3098
124 3 38.9159 36.6864 79.8462
125 1 41.8906 35.866 78.3181
126 2 43.8021 37.2799 79.611
127 1 17.0857 41.3573 79.7149
128 3 21.6932 40.0927 75.4588
129 1 20.9442 40.0578 78.1476
130 2 18.6059 41.7588 77.3011
131 1 21.2823 42.6455 76.3242
132 3 19.0851 39.2861 79.8927
133 1 20.155 42.6167 79.347
134 2 25.9518 39.4201 75.5754
135 5 23.0984 42.2014 78.6954
136 4 23.8588 40.1235 77.0228
137 2 26.7037 38.0616 79.2552
138 2 26.5047 40.1229 77.8293
139 5 25.5728 42.6339 77.2689
140 1 25.8574 41.8308 80.0173
141 1 24.2499 39.3819 79.6248
142 1 29.1357 40.3152 76.7019
143 1 28.3338 40.0601 79.924
144 3 30.609 40.8679 78.9625
145 3 31.2913 41.9062 76.8182
146 3 30.4166 38.0045 75.8442
147 2 28.0223 42.1736 78.2835
148 4 34.8834 39.0885 76.2357
149 1 32.2219 39.5177 77.3183
150 2 34.4984 39.7795 78.8005
151 5 33.9479 41.755 76.102
152 1 33.0713 42.3354 79.0515
153 1 36.0982 42.0234 78.4551
154 1 37.7078 38.6834 78.2505
155 1 39.9927 39.0964 76.0051
156 1 40.7512 38.5746 78.9593
157 4 36.9818 40.3689 75.906
158 1 38.9236 41.1829 79.5612
159 4 38.9609 41.7588 76.7799
160 1 42.8471 38.5933 76.9048
161 1 44.1872 40.1377 79.0924
162 5 41.4897 41.099 77.7152
163 1 43.966 41.7183 76.4549
164 5 16.5663 43.8304 78.2396
165 1 17.5385 46.4397 79.473
166 1 21.0999 45.6688 75.5315
167 1 19.1509 44.7035 77.5367
168 2 21.8136 44.703 78.4
169 2 18.1769 47.2386 76.5656
170 2 22.5669 46.5336 79.9702
171 5 23.6164 44.375 76.5199
172 5 24.6209 44.7473 79.1806
173 1 22.9889 47.1518 77.2775
174 2 25.5131 46.3916 77.0312
175 1 27.4129 44.8207 78.1505
176 1 29.1541 43.476 76.1263
177 1 30.3014 43.5286 78.8475
178 3 27.9895 46.2288 75.9162
179 2 30.1607 45.8145 77.1662
180 1 29.5503 46.6158 79.5883
181 3 31.9579 44.1755 76.6787
182 5 34.4868 44.401 77.129
183 1 32.7115 46.648 75.9882
184 1 35.8006 46.7826 75.7502
185 4 35.073 44.8644 79.7615
186 1 32.4379 45.6095 78.9683
187 1 39.6388 44.324 75.8756
188 4 36.7183 42.9794 75.8098
189 5 40.3955 43.5713 78.7487
190 4 38.0299 44.2985 80.0345
191 4 39.4804 46.2477 78.2351
192 4 37.2154 45.0014 77.5582
193 4 36.6237 47.0064 79.8722
194 2 42.0316 43.5991 76.8002
195 1 43.2985 43.0611 79.2621
196 3 42.4304 45.4594 78.6052
197 1 44.3852 44.7738 76.7174
198 2 45.8945 42.7425 78.5214
199 1 41.6807 46.6463 76.4039
200 1 46.0318 45.5152 79.1093
201 1 17.329 51.9358 78.8073
202 2 17.5074 49.1626 79.109
203 3 21.0941 51.1365 75.4648
204 1 20.2569 47.4995 78.2661
205 3 21.6846 49.4692 77.1608
206 1 19.0005 50.1307 77.0115
207 1 22.526 49.3665 79.6969
208 1 20.2324 51.3473 79.3832
209 1 22.7632 51.737 77.763
210 1 24.9398 49.5086 77.1586
211 2 25.0119 51.1451 79.3459
212 1 25.0021 47.683 79.5523
213 2 31.872 48.3159 79.0014
214 1 27.5792 48.0736 77.7439
215 1 27.886 50.3417 75.5972
216 2 27.4859 50.9687 78.2284
217 2 30.3085 51.1928 76.783
218 4 29.6967 49.6066 78.9087
219 5 30.2806 48.3141 76.5668
220 1 31.7029 51.7175 79.0583
221 1 34.4836 47.6569 78.2602
222 1 32.6748 49.8094 76.7556
223 3 35.3873 49.9163 77.1499
224 3 33.7196 49.9541 79.2447
225 1 36.35 50.3119 79.7229
226 5 37.4704 48.3463 77.6978
227 1 40.1753 49.2703 76.7094
228 1 37.8569 51.2077 76.8798
229 1 39.262 49.9254 79.5077
230 3 40.4287 51.7856 77.8239
231 2 42.4487 50.099 77.9762
232 1 41.5743 47.946 79.3406
233 1 44.2035 47.6867 77.8718
234 1 45.0813 50.5225 77.0122
235 1 44.4066 50.132 79.8776
236 5 46.9106 48.9379 78.7698
237 4 46.9675 51.8204 79.4794
238 2 20.1793 52.8666 77.0896
239 1 21.8155 54.2943 79.3981
240 1 18.8947 54.3558 78.9829
241 2 20.8051 56.271 77.8455
242 1 22.4581 54.3496 76.3427
243 2 24.3818 56.89 75.5015
244 2 24.3476 53.7859 78.4444
245 1 25.6632 52.3005 76.6169
246 1 26.2358 55.1967 76.7955
247 1 26.924 53.4779 79.2658
248 1 23.6774 56.4408 78.1285
249 2 26.3098 56.7903 78.986
250 4 28.6284 53.0835 76.9962
251 1 29.1042 55.7181 75.5685
252 3 28.6397 55.6084 78.1292
253 2 29.734 53.7626 79.5756
254 1 31.2978 54.2258 77.4425
255 2 30.7516 56.9731 77.2048
256 1 30.932 56.0972 79.8708
257 2 32.854 52.4008 76.1733
258 1 34.8402 52.3753 78.1481
259 1 34.292 54.7598 76.2969
260 1 35.648 55.2921 79.0557
261 4 33.058 56.4972 78.0206
262 1 36.4871 56.979 75.6324
263 1 40.2257 54.0844 76.2908
264 1 37.2937 54.2382 76.7861
265 1 38.3965 52.9129 79.3284
266 3 39.3002 55.3869 78.4935
267 3 37.4863 56.8123 78.1086
268 1 42.7361 52.3459 76.4973
269 1 41.3695 53.9847 79.1543
270 1 44.2475 52.9759 78.9724
271 2 43.5733 55.6148 79.6765
272 2 42.8375 55.0754 77.0656
273 5 41.5193 56.9517 78.4866
274 2 21.8144 58.447 78.9825
275 2 23.2562 60.6935 79.8255
276 1 24.3384 59.211 77.6187
277 2 26.585 59.315 79.145
278 1 26.9201 58.1116 76.5604
279 3 25.6469 61.4437 78.3449
280 1 28.9399 58.1988 78.8766
281 1 29.6716 59.1049 75.9949
282 1 31.7712 59.2086 79.0806
283 2 31.4705 61.0003 77.0498
284 1 28.3074 60.9569 77.8478
285 1 32.6486 58.5558 76.0017
286 4 34.9423 58.041 77.8698
287 3 33.9693 60.3578 77.7337
288 2 35.2577 59.4602 75.5991
289 1 36.0294 61.229 79.3633
290 1 37.505 59.4002 77.507
291 1 39.4819 57.1813 76.4847
292 1 40.2674 59.5305 78.4594
293 3 39.1723 57.6645 79.7958
294 3 30.4823 61.8475 79.2646
295 1 33.1328 62.0696 79.5946
296 1 21.907 32.1539 82.9465
297 1 24.9253 31.2113 83.6098
298 5 25.1688 31.5423 80.6618
299 4 27.3976 30.5305 82.2236
300 4 29.4821 30.9383 83.7662
301 4 31.3175 29.3417 82.9222
302 4 31.7679 32.418 83.7219
303 1 30.0288 32.9716 81.4943
304 1 27.4265 33.0249 84.1402
305 1 33.8621 30.5824 83.7333
306 5 32.5428 31.3259 81.1436
307 1 35.408 32.3937 81.5611
308 4 39.4972 31.0392 84.1727
309 5 36.8037 30.5208 83.5826
310 4 38.3408 32.0026 81.3742
311 1 17.5301 36.6305 83.6868
312 1 21.7405 37.849 80.2833
313 1 19.466 34.2742 83.0644
314 1 22.3321 34.5478 84.5669
315 1 19.0001 36.7275 81.0681
316 4 21.051 36.8933 83.2049
317 1 21.8267 34.9796 81.311
318 1 24.4087 33.8744 82.3385
319 3 23.5951 36.366 83.1181
320 1 24.7998 36.5282 80.6748
321 1 26.3253 35.8297 83.7156
322 1 27.1356 33.7142 81.1368
323 5 29.7077 35.4689 83.1684
324 1 27.9397 36.6373 81.1528
325 4 30.9439 36.2135 80.7826
326 1 32.8913 34.1975 81.7349
327 1 32.4973 35.3191 84.4568
328 2 34.3749 33.2178 83.9197
329 2 32.3542 37.2622 82.6408
330 1 35.3135 35.6393 82.6681
331 5 36.4607 37.0156 80.46
332 1 34.3703 37.8058 84.5532
333 2 40.0725 33.7753 82.1896
334 1 37.1936 33.5122 83.8069
335 2 37.3825 34.5162 81.0162
336 1 38.6811 36.0574 82.8048
337 1 41.1229 36.1567 81.1733
338 2 42.6712 34.1059 80.5047
339 3 41.3811 35.6579 83.9139
340 1 42.5541 33.4351 83.2541
341 1 43.7355 36.2171 82.5805
342 2 45.7711 37.3205 84.155
343 2 14.9307 40.8801 81.7036
344 1 15.1462 38.4395 83.9684
345 1 17.2582 39.3069 82.0987
346 1 16.9618 42.4304 82.6742
347 2 15.0992 41.2584 84.2982
348 2 19.9338 38.9968 82.2833
349 1 22.0446 39.5671 83.9307
350 1 19.3745 41.2079 83.987
351 3 19.0462 41.1859 81.3712
352 1 21.7039 40.7527 81.119
353 1 21.8732 42.6602 84.0567
354 1 24.7927 38.1883 84.626
355 3 23.6451 38.5974 82.1015
356 1 26.3874 39.0874 82.1626
357 1 24.3021 41.2875 82.4977
358 1 26.7402 42.1116 84.0551
359 2 28.031 38.0467 84.1472
360 1 29.5409 40.4464 84.5404
361 3 28.2861 41.0365 82.3053
362 1 29.896 38.6286 82.2
363 1 30.8469 41.6168 81.5317
364 2 31.6155 42.2449 84.6628
365 1 32.2315 39.1452 80.3187
366 1 32.5003 39.9382 83.4976
367 2 34.4378 38.4015 81.833
368 3 33.9329 40.9355 81.214
369 1 36.3976 39.891 80.6539
370 1 35.4976 40.4952 83.4794
371 2 36.7996 38.1875 82.8291
372 1 38.5306 39.4316 84.5795
373 1 39.2202 38.8194 81.5044
374 4 40.968 38.0443 83.7098
375 1 41.2218 41.0201 82.9895
376 5 38.2 41.3304 82.5117
377 2 39.5576 42.271 84.6687
378 2 41.6388 41.1077 80.2829
379 1 42.4516 38.803 81.3626
380 1 43.6784 39.3885 84.0885
381 1 45.4235 38.6395 81.6666
382 2 43.9511 41.0834 81.6155
383 1 43.9081 42.4065 83.9761
384 3 46.0223 41.0776 83.1893
385 1 47.9087 39.2039 83.0506
386 1 46.8477 41.0273 80.5547
387 1 48.4743 42.2169 82.8275
388 2 14.1731 43.3679 83.2616
389 1 15.1033 43.7484 80.6792
390 2 15.0895 47.1413 80.4176
391 1 13.9679 46.1034 82.6532
392 1 16.7849 45.5408 82.2164
393 2 17.6773 46.8507 84.582
394 2 20.2216 43.1249 81.9861
395 2 21.5273 45.2274 83.02
396 2 18.0522 43.8054 80.5678
397 1 18.9864 44.3766 83.886
398 1 20.2027 45.4536 80.5671
399 3 19.0451 46.8256 82.4026
400 1 20.3251 47.0509 84.6889
401 1 24.4188 44.0028 84.2969
402 1 22.7555 43.7153 81.1426
403 2 25.4587 43.8172 81.7274
404 4 27.0779 45.1046 83.2014
405 1 24.1439 46.2558 82.2066
406 4 26.9173 45.9622 80.6636
407 1 28.2323 43.3754 80.9599
408 1 29.4502 43.4285 83.7629
409 4 31.2532 44.4959 81.3902
410 4 29.4479 46.2342 82.4868
411 4 31.8597 45.3092 83.948
412 1 33.3036 42.9865 82.7936
413 1 35.9487 42.8441 81.4471
414 1 35.6917 44.0018 84.2917
415 2 33.9582 45.5501 82.0153
416 1 36.5059 46.3758 82.5895
417 4 31.9827 47.2255 81.3972
418 1 34.3401 46.8737 84.6229
419 2 40.1444 42.7949 81.3403
420 1 38.4233 44.1271 82.9153
421 1 40.8563 45.3197 81.0267
422 1 39.3268 46.8802 83.5845
423 4 38.9921 47.2595 80.6934
424 1 43.6587 45.8246 80.9253
425 1 41.3011 44.3176 83.8874
426 3 42.5889 43.274 81.7888
427 1 45.4101 43.4146 81.4926
428 2 43.8642 45.0831 83.4802
429 3 41.9854 46.8255 82.9683
430 5 48.105 44.1293 80.6316
431 3 48.8218 45.0142 83.1536
432 4 46.5426 43.7395 84.1936
433 1 46.5024 46.1654 82.3287
434 2 48.0746 47.1715 80.36
435 1 14.0124 49.0404 82.8431
436 4 15.3211 49.9875 80.33
437 2 16.1424 51.0471 83.2046
438 2 15.3983 47.558 84.5713
439 1 16.8347 48.4896 82.2912
440 4 19.4549 48.7053 80.6305
441 2 20.9792 50.5333 81.9452
442 1 21.6598 47.9027 82.2469
443 3 19.2219 49.1946 83.1996
444 5 18.0719 51.0732 81.4055
445 1 18.8395 51.8555 84.0555
446 1 22.3904 51.5224 83.9516
447 1 24.3154 49.5221 82.1913
448 4 26.852 47.8408 82.4539
449 4 25.2161 51.479 84.465
450 5 26.9084 49.5628 80.335
451 4 27.2043 50.4606 83.07
452 1 23.0583 52.2248 81.0091
453 4 25.8389 52.2348 81.6193
454 4 29.5118 48.8147 81.5611
455 1 28.9118 51.5709 80.6909
456 5 29.8962 51.0392 83.4381
457 4 31.5812 48.1621 83.8342
458 4 28.7357 48.5889 84.3025
459 1 34.5484 48.4876 81.4968
460 1 33.8129 50.1162 84.2696
461 2 36.263 48.85 83.865
462 1 32.0803 50.2643 81.6991
463 2 34.0021 51.7533 80.7453
464 2 35.6917 50.883 82.2713
465 1 36.4838 51.6065 84.6676
466 2 32.0734 52.1445 84.5529
467 2 37.6084 48.9486 81.8924
468 1 40.5912 49.2782 82.2763
469 1 38.3995 51.4857 82.0606
470 3 41.0794 51.9475 82.8041
471 3 45.3065 47.7298 80.4652
472 3 43.0126 48.4691 81.3586
473 1 44.3699 47.9124 83.4931
474 1 43.3627 50.6204 82.9455
475 1 41.7298 51.3018 80.2961
476 2 41.3938 48.4936 84.7172
477 2 45.1959 52.1004 81.6384
478 3 48.435 50.4018 83.5004
479 1 48.9121 47.8584 82.9185
480 1 46.4105 49.5183 82.0032
481 5 48.8823 50.0328 80.8345
482 1 45.9629 51.4447 84.3007
483 2 46.7736 48.7218 84.7339
484 4 15.5788 52.6275 81.1438
485 1 16.3695 53.8099 83.7448
486 1 17.4497 56.7049 82.6711
487 2 17.693 54.1141 81.3956
488 2 18.8793 54.8137 83.7302
489 1 20.1523 53.2163 81.7646
490 2 21.9993 54.9936 82.2712
491 1 21.1452 54.0418 84.6862
492 1 19.8692 56.4207 80.8753
493 3 22.4917 56.6213 80.5783
494 1 24.1919 54.0047 83.4455
495 1 24.7946 55.1502 80.7349
496 1 26.5267 56.0784 83.1352
497 1 23.6723 56.9943 83.1267
498 4 27.9916 53.4358 82.653
499 1 28.0903 55.789 80.7139
500 5 29.6411 55.6119 83.1031
501 1 31.1357 53.2511 81.9995
502 1 34.1065 53.1157 83.0038
503 1 33.1925 54.2095 80.0831
504 2 36.0572 53.1244 80.7268
505 4 32.3684 55.9565 82.4998
506 1 35.2069 56.0807 82.0595
507 1 37.0401 53.998 83.0774
508 2 39.9791 53.7187 81.5734
509 1 39.436 52.9431 84.5355
510 1 38.0387 55.5215 80.8124
511 3 39.2874 55.429 83.395
512 1 41.0123 56.2596 81.2822
513 3 36.8265 56.5371 84.235
514 1 42.9615 53.6468 81.8104
515 1 45.1733 54.3429 83.9417
516 1 43.8577 56.5172 82.2578
517 1 45.9106 54.6596 81.0029
518 5 41.7417 54.9128 84.0752
519 2 43.0724 52.7594 84.6832
520 1 47.7996 52.6696 82.2902
521 4 47.933 55.0262 84.1984
522 3 19.1009 58.8423 82.288
523 1 20.5726 57.0457 83.7039
524 1 21.8184 59.0063 81.7316
525 1 20.5711 60.3501 84.1448
526 1 24.5043 58.3179 80.494
527 2 25.0662 59.3904 82.9795
528 1 23.2441 61.425 82.7543
529 5 27.1439 58.4281 81.583
530 1 25.7327 61.1727 81.0289
531 3 28.4863 58.0103 83.7174
532 1 27.361 60.6431 83.8197
533 1 28.6688 60.711 80.8313
534 2 30.0756 60.0797 83.581
535 1 30.1881 58.2187 81.6697
536 2 31.4053 60.7998 81.3573
537 1 36.4573 58.1395 80.1625
538 2 33.4106 57.3211 80.4578
539 1 32.8286 59.0128 82.7029
540 2 34.1623 59.653 80.426
541 1 36.0187 59.1725 82.8179
542 1 34.4784 61.6768 82.2915
543 1 34.0815 57.2067 84.698
544 2 34.3096 60.0399 84.7024
545 1 38.5852 57.868 82.6211
546 2 38.3062 60.0243 80.5001
547 3 38.805 60.5014 83.0299
548 1 40.8535 59.5174 81.4115
549 1 41.2405 60.8735 84.1775
550 1 36.8513 61.3601 84.74
551 1 41.2705 57.8151 83.9435
552 1 43.6434 59.3241 83.16
553 3 42.918 58.2055 80.4063
554 4 46.0709 57.4135 83.9743
555 3 26.515 63.0362 82.7856
556 1 29.3309 62.8503 82.6944
557 3 31.6361 63.3522 81.3687
558 1 31.9915 62.0283 83.7372
559 2 33.3565 64.2975 83.0126
560 2 35.0587 63.8508 80.8429
561 1 36.0656 64.151 83.6725
562 1 37.3677 62.2816 81.7745
563 2 38.8573 63.0854 84.1209
564 1 19.9558 32.8711 85.6801
565 2 21.7934 32.03 88.3536
566 3 27.1208 29.9835 84.9097
567 1 24.5867 29.2784 85.7703
568 1 24.2379 30.4965 88.4685
569 1 22.8954 31.7808 85.8531
570 3 25.8214 31.6218 86.3815
571 1 26.9399 29.0249 87.5292
572 1 27.0334 31.6185 88.9525
573 1 29.6315 28.7806 85.9834
574 2 29.3866 29.8682 88.572
575 1 28.6102 31.5132 86.5143
576 2 31.2598 30.9223 85.8197
577 1 31.2665 31.9679 88.3934
578 1 32.5825 28.4317 85.39
579 1 32.0006 29.0894 88.1838
580 3 35.2895 29.0591 85.3885
581 1 35.1136 29.2074 88.06
582 3 33.5252 30.5952 86.4964
583 2 33.9874 31.6379 88.6874
584 1 35.752 31.849 85.9457
585 1 33.0126 33.1732 86.3852
586 1 37.6996 29.6044 86.5201
587 1 36.9968 31.6697 88.8745
588 3 38.3476 32.1259 86.3804
589 1 39.7954 30.7272 88.4611
590 4 41.5519 31.711 86.2879
591 1 42.236 32.5446 89.1577
592 1 17.2416 35.5964 89.2432
593 3 16.8742 37.753 86.1957
594 5 17.5039 35.0049 86.1322
595 3 19.0424 34.0341 88.0581
596 1 21.515 34.6242 87.4503
597 3 19.8946 35.6676 85.3201
598 1 19.1901 37.0394 87.5405
599 1 22.0579 37.2562 85.9869
600 2 24.879 33.5723 85.0314
601 4 24.1152 33.486 87.8672
602 1 26.6937 34.1888 87.0775
603 2 24.3888 35.742 86.0919
604 1 23.4685 36.3403 88.7571
605 1 26.2777 37.3832 87.2594
606 2 25.9223 35.6116 89.3826
607 2 29.1631 33.6541 88.0179
608 1 28.6277 36.0002 85.8043
609 1 28.9628 36.4436 88.8218
610 4 30.1321 33.5629 85.3337
611 5 31.0977 35.2982 87.3053
612 1 31.1168 37.8304 85.2709
613 3 32.9075 34.1624 89.0133
614 1 35.422 33.9925 87.9411
615 2 35.2073 34.9622 85.4156
616 1 33.6519 36.3826 87.153
617 1 39.4348 33.7673 88.1517
618 3 37.573 34.5016 86.4047
619 1 39.8866 33.7368 84.9299
620 1 37.12 36.81 85.1182
621 1 36.6493 36.7218 87.9685
622 1 39.8686 36.372 86.2209
623 1 39.3464 36.6428 89.4175
624 1 44.9085 34.6603 84.8327
625 2 42.3827 34.1884 85.8652
626 1 44.5036 33.9837 87.6892
627 4 41.8304 35.173 88.035
628 2 43.9232 36.464 88.6019
629 1 43.1181 36.8607 85.742
630 1 41.7887 37.9495 88.4336
631 1 45.9611 36.8224 86.887
632 2 48.1563 37.946 85.5979
633 2 15.9941 41.6822 87.9469
634 1 14.9639 39.7582 86.5869
635 2 17.1529 39.9062 84.7883
636 1 16.2418 38.3411 88.8832
637 1 17.2247 42.4418 85.7563
638 1 18.2127 40.1028 87.3403
639 1 20.3173 41.2198 89.3438
640 1 19.3619 38.4312 84.9794
641 4 21.2286 40.207 86.6724
642 4 21.4012 38.4232 88.9906
643 2 19.9018 42.4909 86.4308
644 1 26.1204 40.5943 88.0809
645 1 24.193 40.9844 85.5243
646 4 23.2041 40.9922 88.9049
647 4 23.8165 38.9012 87.4647
648 2 26.7985 39.8333 85.4525
649 1 28.4241 42.079 86.8243
650 2 29.4875 40.5813 88.9487
651 2 27.6009 38.8406 89.4037
652 1 28.8517 38.8974 86.9827
653 3 31.2697 38.3256 88.0307
654 1 31.3693 40.9573 87.0357
655 2 33.2856 39.1577 86.6303
656 1 34.4083 38.4105 89.0777
657 1 36.1308 39.5262 86.4888
658 1 34.0476 41.7218 85.7138
659 2 34.4808 40.9125 88.293
660 2 38.6408 38.5227 87.4791
661 2 36.7828 39.9514 89.1383
662 4 40.9658 39.1059 86.047
663 3 37.1029 41.859 85.0583
664 1 38.8476 41.1763 87.0531
665 1 44.033 39.5033 87.1957
666 1 41.8834 41.672 85.8837
667 2 41.432 40.5843 88.3151
668 1 43.4133 42.4765 88.2379
669 2 45.3833 40.8741 89.3527
670 1 45.8338 41.9788 86.3741
671 2 48.3536 42.1948 87.79
672 1 48.6329 40.7387 85.4665
673 3 49.5501 39.9431 88.2211
674 2 46.0878 39.5652 85.1355
675 1 47.0309 39.5268 87.6541
676 1 15.8286 44.772 84.8749
677 3 16.1034 44.1344 87.7273
678 1 14.0883 42.8537 86.3798
679 1 13.3289 45.4589 87.9124
680 2 13.3558 45.8296 85.2508
681 1 15.9429 46.7158 87.0913
682 3 18.2516 42.7891 88.3461
683 3 21.0164 44.6307 85.6898
684 1 20.5606 44.2567 88.7104
685 1 18.5055 45.141 86.7452
686 2 19.5117 46.9019 88.9834
687 1 21.6084 46.6905 87.298
688 3 25.6317 42.8518 86.6123
689 4 24.8914 43.3519 89.0477
690 4 27.1999 44.5814 85.7472
691 1 22.6382 43.0282 87.0427
692 1 25.5131 46.9867 84.7847
693 1 24.3954 45.3465 87.0294
694 3 22.8913 46.0587 84.8771
695 3 22.9961 45.6306 89.3682
696 4 26.8831 46.8761 87.3278
697 4 27.4373 44.3112 88.3664
698 4 29.1192 46.098 85.1821
699 5 30.3502 43.1922 89.4077
700 1 30.8103 43.9593 86.5763
701 4 29.7886 45.8566 88.4869
702 4 31.3911 46.7582 86.2243
703 3 35.8526 45.2623 86.6247
704 2 33.4769 44.3526 85.8333
705 1 33.1937 43.2715 88.4335
706 1 36.2494 42.7883 87.492
707 1 33.7667 46.2976 87.7575
708 3 35.4219 44.7022 89.1806
709 1 38.341 44.326 85.9026
710 3 40.4285 42.7556 88.3884
711 2 37.0925 46.9237 85.3259
712 1 36.8217 47.0149 88.4042
713 1 39.5442 47.0396 86.4924
714 1 38.9895 45.0043 88.724
715 1 41.324 44.4352 86.7615
716 3 41.3497 46.5055 88.3551
717 2 43.9486 44.1316 86.0079
718 1 42.8732 46.7022 85.8642
719 4 45.6481 46.0304 85.0574
720 1 44.1442 45.3829 88.4512
721 4 46.6547 44.7339 86.9634
722 1 49.1757 43.6394 85.5707
723 1 49.1964 45.0643 88.3011
724 1 48.4468 46.5249 85.5065
725 3 50.54 47.2056 87.1754
726 1 46.4523 43.3013 89.2984
727 4 46.9579 46.5116 89.4278
728 3 17.3692 49.4354 84.8537
729 3 14.9597 49.9704 85.0537
730 1 13.4421 48.3601 86.4115
731 2 17.0447 47.6319 89.4055
732 1 16.1668 49.5883 87.4878
733 1 13.9558 51.4783 87.0064
734 1 16.6816 52.2486 88.7594
735 5 16.5197 51.8583 85.7788
736 1 14.1928 48.1648 89.3457
737 1 18.6607 48.1803 86.8294
738 1 21.3676 49.6881 87.8866
739 4 20.433 49.8787 85.2291
740 2 18.7037 50.9427 86.9544
741 2 21.0671 52.088 86.5378
742 1 23.0489 48.6847 84.9599
743 1 24.099 48.1919 87.9459
744 4 26.2358 49.4299 85.8309
745 4 26.6096 49.6091 88.4607
746 4 23.791 50.8433 86.7687
747 4 26.0762 52.1213 87.406
748 4 28.929 48.2905 86.9082
749 1 29.3745 50.6969 88.4227
750 4 28.2415 51.2907 85.7417
751 1 31.3736 48.3804 88.6128
752 1 31.0203 50.0439 85.9276
753 3 33.205 48.5057 86.4019
754 1 34.2799 48.9025 89.0913
755 1 35.7931 49.1777 86.5277
756 3 33.1469 50.636 87.3728
757 3 34.8929 51.5097 88.8703
758 2 38.4204 49.2554 87.6206
759 1 38.7551 49.6791 84.8679
760 1 41.1743 49.23 87.4911
761 1 37.1492 51.7023 87.5234
762 3 39.6615 51.6038 86.9561
763 1 43.8576 49.6877 85.8976
764 2 43.2963 47.9104 88.3741
765 1 44.4825 50.1289 88.9646
766 5 41.3839 50.9881 85.181
767 1 45.7263 47.788 87.2024
768 2 44.7039 52.1318 86.5389
769 1 42.3469 51.9242 87.8795
770 1 46.9717 50.5456 87.0034
771 3 48.2586 48.0103 87.7352
772 2 49.545 50.0815 88.3599
773 1 49.4483 49.3311 85.6947
774 1 16.9678 56.1259 85.5826
775 2 14.3299 53.6065 89.1468
776 2 15.1215 53.9857 86.3863
777 1 16.5563 55.193 88.3496
778 1 18.5692 53.7242 86.449
779 1 19.6915 52.564 88.9975
780 3 21.2212 54.4486 87.4333
781 3 19.2185 55.2952 88.6247
782 2 19.7284 56.1184 86.1073
783 1 21.467 56.9563 88.4128
784 5 22.4842 56.2637 85.73
785 1 22.6747 52.5757 88.8193
786 4 26.7267 53.7268 85.1301
787 1 23.744 53.713 86.3444
788 1 26.0798 55.1842 87.7079
789 3 23.4808 55.2542 88.5479
790 3 25.0735 55.9568 85.3366
791 4 29.7069 53.5104 84.9559
792 1 28.6089 53.6519 87.7718
793 1 28.158 56.2182 85.7144
794 3 28.5581 56.4331 88.3957
795 2 30.5295 55.406 86.752
796 1 31.4286 52.7754 87.3673
797 1 34.3063 52.726 86.3955
798 4 32.3095 54.6923 84.8881
799 2 35.0736 54.7771 84.9041
800 3 33.2209 53.3714 89.2139
801 1 33.1974 55.4787 87.5873
802 1 35.7708 54.1713 88.6952
803 3 35.6778 56.3142 86.8544
804 3 38.6989 53.7249 88.4096
805 1 37.3939 54.3411 86.1307
806 1 40.7797 54.1375 86.8385
807 1 39.0814 56.6647 85.7645
808 3 37.7177 56.1643 88.1815
809 1 40.3192 56.3676 88.835
810 3 43.6833 56.6791 84.8543
811 3 43.1727 54.2621 89.0674
812 1 43.7695 54.6355 86.5883
813 1 45.6377 52.7796 88.9582
814 2 45.4251 55.4357 88.9345
815 2 41.7266 56.539 86.2844
816 1 43.2045 57.0145 88.3912
817 2 45.743 56.5045 86.4947
818 1 48.7445 52.2974 85.3165
819 4 48.6473 52.6429 88.394
820 5 46.6843 53.9418 86.5039
821 4 47.9171 55.6144 88.5294
822 2 16.0907 57.9485 87.6815
823 1 18.3134 58.665 85.0593
824 1 18.7099 57.8163 87.9375
825 2 20.9559 58.412 86.1576
826 1 19.7973 60.5856 87.2404
827 2 22.2394 61.7732 85.7892
828 1 23.2641 59.2644 84.9474
829 2 26.1863 58.1662 84.8494
830 5 22.6642 59.8942 87.7246
831 1 24.3271 57.6213 87.3227
832 1 25.4956 60.1213 89.0182
833 2 25.4907 59.9557 86.3294
834 3 26.8884 57.9802 87.3035
835 1 28.7951 59.2951 86.0339
836 4 30.5732 60.8619 88.1476
837 1 30.7772 57.8495 87.9325
838 1 30.9908 57.411 84.8371
839 1 31.8638 59.9958 85.7986
840 1 27.2961 61.7272 87.121
841 1 28.3328 59.3823 89.03
842 1 33.7879 58.3275 87.4137
843 1 36.4689 58.6635 85.9134
844 3 36.1234 59.3741 88.7577
845 1 34.5814 61.1442 87.1183
846 3 39.0231 59.3212 85.1026
847 1 38.5866 58.7471 87.8373
848 2 37.2729 61.1169 87.4888
849 1 39.5662 61.7252 86.4532
850 1 41.0708 61.7168 89.0274
851 1 41.2761 59.101 86.7924
852 1 44.1923 58.9249 86.1383
853 3 42.613 61.3704 86.6218
854 1 43.4831 59.9089 89.0124
855 1 46.0062 58.1327 88.7541
856 3 21.4572 62.0388 88.9517
857 1 25.0311 62.213 84.9703
858 1 23.9686 62.4475 87.8279
859 2 26.114 63.0207 89.2978
860 4 26.0097 64.6374 87.2162
861 3 29.6523 61.8641 85.3545
862 1 27.8113 63.8779 85.0644
863 1 30.8617 64.5813 84.8469
864 1 28.0812 65.1744 89.4221
865 1 29.6227 63.4682 87.6034
866 5 29.0712 66.1244 86.7613
867 1 31.8328 65.4579 87.9153
868 3 34.3623 62.5559 84.9018
869 4 32.2622 62.3126 89.4441
870 4 32.2353 62.7407 86.6193
871 5 35.0735 65.9712 88.2872
872 2 34.1375 63.5976 88.2927
873 1 33.866 65.0306 85.717
874 1 36.4491 63.6712 86.7056
875 1 38.4002 63.3575 89.0153
876 5 19.9718 32.6943 90.134
877 1 22.4191 31.1316 90.9721
878 1 20.83 32.8543 93.0493
879 1 23.527 30.1797 93.58
880 2 25.0382 30.2233 91.1437
881 2 26.2739 29.3339 93.3887
882 4 24.2775 32.6744 92.8678
883 4 24.9885 32.8866 90.2539
884 1 26.9571 31.8345 92.3512
885 1 27.5218 29.1904 90.6282
886 3 28.7841 29.8531 92.9492
887 1 29.5466 31.569 90.7418
888 5 30.4741 28.7656 90.8608
889 1 31.3256 30.6832 92.9878
890 3 32.5821 30.2875 90.4822
891 3 33.729 31.5627 92.6144
892 1 36.3634 30.4418 93.6274
893 1 35.2038 30.1157 90.871
894 3 32.1211 32.5326 90.9209
895 1 34.7276 33.1264 90.7576
896 2 33.5883 29.0854 92.9242
897 1 38.2587 29.9738 91.1228
898 2 37.053 32.3181 91.7895
899 1 39.6571 32.7732 91.0082
900 4 41.2078 30.2621 91.1038
901 1 39.2732 31.4651 93.7403
902 5 42.4752 32.5734 92.1601
903 2 15.7248 36.2184 91.4951
904 1 20.2719 35.7771 89.991
905 1 18.2278 34.2282 91.7853
906 2 20.5559 35.5618 92.7216
907 1 18.2913 37.1647 91.8022
908 4 21.137 37.9242 91.7907
909 1 22.5307 34.1039 90.6769
910 3 22.7673 34.6715 93.3191
911 1 25.4221 35.0476 92.1536
912 2 23.2875 36.6189 91.4709
913 1 22.8403 37.1901 94.1272
914 3 25.2731 37.6082 92.9198
915 4 27.3103 36.9265 91.2086
916 1 27.8917 34.061 90.3492
917 3 28.0359 34.2171 92.9239
918 1 29.831 35.9067 91.8941
919 3 30.6254 34.2277 89.9598
920 2 30.3733 33.3557 92.5198
921 2 31.7053 37.0772 93.4012
922 5 35.2431 33.2067 93.7158
923 1 32.0053 36.6116 89.8399
924 3 34.6837 35.803 89.8972
925 1 32.7294 34.8129 92.0811
926 5 35.5971 35.5895 92.4136
927 4 33.6799 37.6365 91.9078
928 4 38.0088 33.9755 93.5355
929 4 40.7367 34.1021 93.7597
930 2 39.2104 35.5288 91.9082
931 1 37.2903 34.602 90.2283
932 1 36.8046 37.701 90.8162
933 4 37.7574 36.6672 93.6831
934 1 41.6187 35.1488 90.8337
935 3 44.0909 34.2506 90.5034
936 1 43.8226 34.9437 93.2507
937 1 43.8705 37.0532 91.2108
938 1 41.395 36.9023 93.3344
939 2 44.5974 37.3715 94.0477
940 1 46.2606 35.5144 89.618
941 1 46.5898 36.7044 92.301
942 1 48.0552 37.8483 89.8309
943 3 14.5359 40.341 89.5516
944 1 17.0549 41.2586 90.2232
945 1 15.9508 39.025 91.835
946 2 14.5069 41.4879 92.0124
947 2 16.9245 41.3862 92.9414
948 2 18.7788 38.7713 89.6936
949 1 19.2251 40.027 92.0613
950 2 21.2776 41.7367 92.4769
951 1 24.9776 38.4869 90.2791
952 4 22.5783 39.9185 91.2767
953 5 24.9621 41.4287 91.0187
954 2 23.5677 42.477 93.2334
955 1 24.5602 40.0036 93.4929
956 1 26.7618 42.429 93.1468
957 1 27.2927 39.6353 92.0159
958 1 27.6807 42.0914 90.2202
959 1 29.9768 38.6618 90.7963
960 3 29.2244 40.8494 93.4088
961 3 30.1118 41.3188 91.2647
962 1 31.8213 39.8531 92.8809
963 4 29.4458 38.276 93.8228
964 5 35.7379 38.4627 93.5415
965 1 32.2812 40.3381 89.8006
966 2 34.7285 39.8528 91.3525
967 5 34.2553 41.239 93.5276
968 1 35.3137 42.2793 90.577
969 1 39.4883 39.6652 89.8742
970 1 38.1698 42.3026 89.7519
971 1 37.4629 40.3573 92.1425
972 3 39.1691 38.0136 91.9832
973 1 40.754 40.1077 92.6564
974 3 38.9243 42.6916 92.195
975 2 45.3855 38.3347 89.4607
976 1 43.1164 39.9417 90.3615
977 3 41.3591 37.9755 90.9775
978 3 43.1017 38.9581 92.9457
979 1 45.6692 39.579 92.0014
980 1 41.2605 42.2454 90.7858
981 1 43.5135 41.6269 93.0902
982 3 44.0024 42.6414 90.7095
983 1 47.9004 40.7834 90.2897
984 3 46.1284 42.3336 91.7987
985 1 48.6019 42.1856 92.8624
986 4 48.6802 39.111 92.5367
987 1 14.3107 43.0932 89.5386
988 1 13.2532 45.8322 91.0835
989 1 15.941 43.8893 91.8246
990 3 15.3557 45.6745 89.5814
991 1 15.9478 47.0075 91.9068
992 1 17.7942 45.0303 89.7384
993 3 13.9271 44.9619 93.4377
994 1 19.115 42.9992 91.3961
995 1 20.8129 44.1561 93.5156
996 1 21.222 47.0584 93.534
997 3 20.4743 45.4695 91.1089
998 2 18.2065 45.3292 92.4588
999 1 22.4363 43.3709 90.7991
1000 1 25.119 44.4459 91.7211
1001 4 25.6838 46.2407 89.604
1002 3 22.869 45.8929 91.8317
1003 4 26.4761 47.2183 92.1817
1004 2 26.348 45.1942 94.0305
1005 4 29.3261 43.4952 92.4697
1006 4 27.9917 45.0758 90.8713
1007 4 28.6849 46.3089 93.2756
1008 4 30.1077 46.9361 91.0844