# LAMMPS data file written by OVITO Pro 3.7.7
1499 atoms
5 atom types
0.0 250.0 xlo xhi
0.0 90.51 ylo yhi
0.0 181.02 zlo zhi

Atoms  # atomic

1 1 44.0256 17.9275 81.3333
2 1 43.8639 20.69 79.967
3 3 46.0442 19.4568 80.87
4 2 41.8258 19.6572 81.6757
5 2 47.8106 17.3733 81.4064
6 1 48.615 20.0008 80.9739
7 1 50.8533 18.3614 80.754
8 5 53.4016 19.6 80.9315
9 1 56.0784 20.8208 81.2358
10 1 39.6859 21.4801 81.6681
11 1 39.6794 24.4778 80.9022
12 3 44.3687 23.6221 79.2836
13 1 42.2902 25.6661 79.5014
14 1 42.2181 22.8928 81.0575
15 2 44.9023 22.6346 81.4894
16 1 44.3575 25.2256 81.6452
17 3 45.344 25.9309 79.397
18 3 46.6901 21.3392 82.3101
19 1 46.6575 21.8457 79.5202
20 2 46.8559 24.314 80.4217
21 1 48.7889 22.8324 81.5345
22 2 49.2914 25.4502 80.8231
23 1 49.4905 23.723 78.8045
24 3 51.1938 23.6708 81.8239
25 1 51.2083 21.4702 79.9753
26 1 52.6335 24.2064 79.5575
27 1 53.5185 22.4567 81.9292
28 3 53.9849 21.7085 79.3739
29 3 55.4907 23.5906 80.0215
30 5 54.4867 25.7145 81.1471
31 1 58.13 22.96 80.4337
32 1 57.4314 25.8304 80.5816
33 3 60.3885 23.8848 81.5708
34 2 37.536 26.2792 80.9835
35 2 40.0003 27.2658 80.4831
36 1 39.6552 30.1165 80.2983
37 1 37.295 28.9561 81.5421
38 1 44.345 27.5024 77.6915
39 1 44.5354 30.494 78.1473
40 1 41.991 28.7725 78.9305
41 2 43.8286 27.6223 80.5377
42 2 43.9633 30.1791 80.9899
43 1 46.1885 28.6279 79.8424
44 1 41.8246 28.708 81.9814
45 1 47.7558 26.2497 78.4713
46 2 48.2643 30.267 78.7124
47 2 46.7614 28.9408 77.1541
48 1 47.0177 26.5873 81.8101
49 1 49.1423 28.1732 80.2813
50 3 49.3127 28.2933 77.4984
51 1 51.0475 26.5231 78.7418
52 1 51.2615 29.7101 78.8308
53 4 51.2632 29.172 81.7986
54 2 47.6256 29.6299 82.0512
55 1 55.3432 27.2453 78.9748
56 2 53.033 27.8829 80.3545
57 1 51.6072 26.2551 81.851
58 2 53.1586 28.1846 77.699
59 2 55.5128 28.3221 81.527
60 1 54.3122 30.1504 79.746
61 1 57.3371 29.3758 79.7258
62 1 56.9552 30.9014 82.2417
63 2 59.716 29.843 81.1765
64 1 60.4983 26.7422 81.3904
65 2 39.8499 33.3677 80.8899
66 4 41.058 31.5652 82.2881
67 1 42.1384 31.7504 79.5652
68 2 44.5093 33.2405 78.9964
69 1 42.3598 34.6681 80.2467
70 1 46.3016 31.5815 80.343
71 1 45.7108 34.5565 81.1359
72 1 43.655 32.7343 82.0486
73 5 49.4306 31.1979 80.7935
74 1 47.0073 32.2935 77.5421
75 1 46.5896 35.1286 78.4293
76 1 49.564 35.5215 78.6267
77 2 48.2002 33.3813 79.7047
78 2 48.1802 35.573 80.9421
79 1 50.3176 32.4801 78.3038
80 1 50.6403 34.0197 80.9727
81 2 51.9778 34.6645 77.7837
82 2 53.0626 31.5351 77.7071
83 1 53.3592 33.3871 79.6546
84 3 52.0389 31.4418 80.7516
85 1 56.2412 32.3584 79.4957
86 3 54.69 32.2378 81.6392
87 3 53.9784 34.6952 81.8744
88 4 55.5163 35.339 79.7529
89 1 56.6107 34.0694 82.1608
90 2 58.6575 32.4692 80.8414
91 4 40.4796 36.3296 82.0244
92 2 44.4132 36.5343 79.7784
93 1 46.0287 37.4353 81.9468
94 4 47.5808 37.6985 79.5362
95 4 50.0369 37.4418 81.2324
96 5 52.4257 36.2359 80.0863
97 5 52.5153 38.9355 81.867
98 2 54.5788 37.098 81.5975
99 1 46.1547 14.4402 85.272
100 1 45.7626 16.1045 82.874
101 1 49.3007 13.7147 84.7842
102 5 47.6836 12.809 87.219
103 1 48.4736 15.6912 86.6892
104 1 52.3 13.5681 85.2122
105 2 53.0029 15.5821 86.8076
106 3 55.3611 14.7188 86.48
107 1 54.1556 15.7616 84.2949
108 1 57.8077 15.5996 87.2197
109 3 38.1101 20.6304 86.0881
110 1 39.603 19.4453 84.0687
111 3 40.1481 19.4778 86.7425
112 2 40.4806 16.9215 85.6757
113 1 38.0258 17.9603 86.537
114 1 41.8368 17.346 83.2659
115 1 44.1771 20.4856 83.0164
116 1 42.3508 19.2636 85.3344
117 1 43.5642 16.3908 85.9942
118 2 44.3571 18.0197 84.0323
119 1 45.1623 19.3241 86.3068
120 3 46.3364 17.0551 85.3357
121 2 48.3858 16.2272 83.7845
122 1 46.8102 18.9533 83.4406
123 4 48.5517 18.2804 85.5168
124 3 49.591 18.5305 83.1219
125 1 50.9356 19.5719 85.3141
126 1 50.9592 16.3377 85.0512
127 1 47.7872 20.6533 86.8539
128 2 51.0234 20.6951 82.5454
129 1 55.2979 18.2624 82.8431
130 4 52.329 17.7685 83.0305
131 4 53.3178 20.2825 83.7678
132 1 53.5374 18.226 85.8934
133 4 55.8689 20.7878 84.2624
134 1 56.3988 17.5598 85.5244
135 2 55.5675 19.7627 87.1542
136 3 57.9022 18.9297 83.5941
137 1 58.0247 20.4197 85.8991
138 3 60.466 20.2434 84.9442
139 1 59.4122 17.7861 85.7282
140 1 62.7713 21.1521 86.089
141 1 35.0432 25.836 86.5364
142 1 34.8488 22.6823 87.0578
143 3 38.0974 24.7772 82.9895
144 1 38.2391 22.3061 84.0544
145 2 36.6019 24.4128 84.9255
146 1 39.4983 25.0469 85.3129
147 3 40.5731 23.4794 83.3637
148 1 40.7212 22.1798 85.8674
149 1 37.7021 23.1001 87.0291
150 2 41.6244 21.2283 83.5579
151 1 43.3712 23.2911 83.7994
152 1 41.6858 25.7711 82.7027
153 2 44.1383 25.9208 84.2052
154 2 42.1841 24.8763 85.6055
155 2 43.6291 21.6669 85.8389
156 2 46.0497 21.478 84.811
157 1 45.4108 23.8505 86.0114
158 1 46.4784 23.8303 83.2735
159 1 48.782 21.2679 84.0429
160 1 49.2182 24.9075 83.6501
161 2 48.0478 23.4065 85.5996
162 2 47.2481 25.7003 87.274
163 1 51.459 22.8157 84.4081
164 3 50.1032 21.9071 86.5699
165 1 50.1262 24.6054 86.8769
166 5 53.6915 24.866 83.5757
167 4 51.5941 25.8599 84.7142
168 1 53.2443 24.3222 86.7323
169 1 53.1042 21.2438 86.5858
170 3 54.3146 22.7084 84.6906
171 1 56.2312 23.4776 82.6592
172 5 55.9497 22.4451 86.8625
173 1 56.143 24.7433 85.2681
174 1 58.6625 21.4913 82.976
175 1 58.7306 24.9872 83.3002
176 3 58.2817 23.0569 85.1322
177 1 60.5298 25.1879 85.7891
178 1 60.2252 22.3979 86.9692
179 1 61.1099 22.7898 84.0571
180 3 61.6838 25.3234 83.2958
181 1 58.1639 24.4183 87.5246
182 1 63.3933 24.4409 85.395
183 1 33.6836 30.2059 87.303
184 3 34.5323 28.2594 85.2805
185 3 35.1872 30.7998 85.3182
186 1 34.8271 29.6484 82.9767
187 1 35.9388 26.8083 83.3174
188 1 39.1227 27.2207 83.1836
189 4 39.3549 28.1838 86.1131
190 1 37.2722 29.476 84.5381
191 3 37.377 26.8054 85.412
192 3 38.6631 30.5336 86.9893
193 4 39.9604 29.8739 83.9312
194 3 41.1387 30.0241 86.2457
195 1 36.3096 28.6459 87.191
196 1 41.1067 26.6269 87.5478
197 1 42.9872 30.6479 84.191
198 1 42.1886 27.7707 84.9446
199 1 44.8186 28.313 82.9451
200 1 44.3117 26.427 86.8577
201 1 45.091 29.2106 85.8791
202 1 45.8203 31.1606 83.257
203 5 47.6845 29.4752 84.7593
204 1 46.6823 26.5755 84.8101
205 3 47.23 28.486 87.3497
206 4 49.331 27.8163 83.2177
207 1 49.9888 31.0418 83.6219
208 1 49.2302 27.2424 86.1182
209 1 49.8565 30.1215 86.6165
210 3 53.7349 27.4633 83.0941
211 1 51.7726 28.6513 84.712
212 1 53.6966 30.0635 82.7401
213 3 51.7039 26.9204 86.9908
214 2 56.1134 26.3567 83.1377
215 1 56.0658 28.9308 84.295
216 1 54.3013 27.0266 85.704
217 2 54.0511 29.8663 85.5495
218 1 58.1446 28.0239 82.4082
219 1 57.9238 27.0589 85.6176
220 3 56.8346 30.8788 86.0796
221 4 58.8939 29.8133 84.4763
222 3 60.1217 27.1776 84.0416
223 1 61.6152 29.1877 83.278
224 1 61.0231 28.3614 86.2576
225 1 58.5988 29.3881 87.5257
226 2 62.4695 26.2358 87.3103
227 3 62.6996 27.0577 84.7087
228 1 63.5233 29.8752 85.7131
229 1 64.8066 27.2592 86.3771
230 1 34.6548 33.1733 86.4424
231 2 35.7059 32.3509 83.393
232 2 36.1269 34.7587 84.6264
233 1 35.6796 36.0484 87.0202
234 5 38.1539 31.651 82.5158
235 1 38.6245 34.4023 83.4918
236 1 37.4844 32.3829 85.453
237 3 37.9573 34.7482 86.4954
238 1 40.4926 32.5152 85.0782
239 1 40.9299 35.5846 84.9672
240 2 36.2787 31.2787 87.5429
241 2 39.9307 35.9692 87.4158
242 3 41.4064 34.0068 82.8666
243 1 43.4148 35.9103 82.7673
244 2 43.1631 33.4596 84.7099
245 4 42.9502 31.7041 86.8668
246 1 45.7435 34.2528 84.1631
247 3 45.1663 31.9569 85.637
248 1 43.7867 36.009 85.7597
249 4 42.1727 34.1404 87.2714
250 1 45.1809 33.8391 87.4982
251 1 48.0127 33.1135 82.3838
252 2 47.7871 32.2361 84.8611
253 1 48.3908 35.9818 83.525
254 5 47.7391 34.5788 86.1739
255 1 47.2264 31.3781 87.268
256 2 50.1238 33.8586 83.8243
257 4 49.8958 32.9383 86.2666
258 1 50.3718 35.7945 85.7488
259 2 52.1319 31.3262 85.3599
260 1 52.4785 32.8028 83.0053
261 1 51.9176 35.9356 83.0623
262 4 52.443 33.8197 85.6431
263 1 55.1611 32.1814 84.4109
264 1 54.8012 35.1033 84.4071
265 1 54.4038 31.8058 87.3659
266 1 60.8411 31.4761 85.634
267 3 57.5041 35.3519 84.9485
268 1 58.2844 32.7286 84.4146
269 1 56.7301 33.6543 86.8022
270 3 57.9262 36.1576 87.2774
271 2 59.2924 34.5196 82.596
272 1 59.7646 34.4287 86.5659
273 3 58.8391 32.0395 87.3207
274 5 60.5124 31.9125 82.6886
275 1 61.6269 34.1167 84.3612
276 3 62.24 35.4881 86.7648
277 2 63.0301 31.7819 83.8406
278 1 63.1239 32.9225 86.9579
279 1 38.233 37.0061 85.2765
280 4 40.6865 38.4195 84.184
281 1 39.2222 39.4303 86.9703
282 1 43.775 38.6177 84.1469
283 1 44.5219 39.2298 87.0641
284 2 46.0725 37.0579 84.5607
285 3 45.7975 39.985 82.9459
286 1 46.2143 36.7615 87.1977
287 1 41.9115 40.5661 85.8015
288 1 41.8375 37.8048 87.1189
289 1 48.3439 39.0185 83.1488
290 2 46.5708 39.4176 85.3139
291 2 48.4169 37.6688 85.726
292 1 51.0836 38.5087 84.4137
293 1 49.2242 40.2911 85.8664
294 1 51.0047 38.2304 87.4525
295 1 55.9309 39.8307 83.0716
296 2 52.8509 36.6543 86.0964
297 1 54.0561 37.9423 84.0987
298 1 53.2068 40.8083 84.2939
299 2 53.2796 39.2334 86.5423
300 3 55.4687 39.8341 85.65
301 1 55.6686 37.2389 86.4428
302 1 56.9477 36.9819 82.9782
303 1 57.9953 38.7371 85.2567
304 1 59.8104 36.5252 84.3392
305 3 59.5919 40.0272 87.4271
306 1 60.2631 37.483 87.0949
307 3 40.9978 42.4795 87.431
308 1 44.5689 41.5313 84.8806
309 2 50.5061 41.2831 83.6893
310 1 51.5685 41.2433 87.3244
311 4 46.6278 44.5322 86.8298
312 1 46.6186 41.7459 86.9655
313 1 47.5014 41.8643 84.035
314 1 49.3652 43.2552 86.0353
315 2 52.0153 43.091 85.3522
316 1 54.3561 42.1765 86.7811
317 1 57.3151 41.2988 86.8196
318 1 38.9171 15.8378 88.4133
319 3 38.3761 15.1013 91.1174
320 1 40.9578 15.9821 90.5407
321 1 40.5253 13.4378 92.1224
322 1 42.6888 13.5017 90.0599
323 1 41.6085 14.7136 87.5558
324 5 44.6504 14.0228 87.7473
325 2 45.7753 12.5397 89.7456
326 1 44.9801 14.7504 91.2966
327 3 43.551 15.9861 89.0831
328 2 42.5185 15.2872 92.7611
329 2 43.624 12.5452 92.5459
330 1 47.1157 14.9645 89.2053
331 1 48.7106 12.4564 89.9473
332 1 50.6687 13.8867 87.7393
333 3 50.8181 13.5961 91.2257
334 4 49.9744 15.6304 89.8044
335 1 48.253 14.6613 91.9227
336 1 46.4878 12.2363 92.4219
337 3 49.3342 11.9941 92.5545
338 3 52.7368 15.3087 89.3617
339 1 53.5904 13.1946 87.9283
340 1 56.0638 14.0842 89.2136
341 4 51.6419 11.744 89.677
342 4 53.633 13.4589 91.0158
343 4 55.1339 15.6587 91.501
344 4 51.735 15.7822 92.0343
345 1 57.6347 14.3528 91.9817
346 3 58.8189 14.4751 89.5226
347 5 59.9966 16.1581 91.4348
348 5 35.3461 19.7843 91.1152
349 2 35.8026 17.4026 92.3912
350 2 37.9986 20.121 90.8278
351 3 39.0174 18.4909 88.9864
352 1 36.4024 19.9614 88.0836
353 1 36.6699 17.4422 89.6682
354 1 39.274 21.1055 88.5881
355 1 38.7219 17.7051 91.725
356 1 41.0413 19.4077 90.5011
357 1 41.4958 17.6347 88.0702
358 2 43.9047 18.544 88.6641
359 1 42.2956 20.6451 87.9509
360 1 43.7894 20.5497 90.5884
361 1 43.3319 17.4866 91.2772
362 4 45.7618 16.8998 87.7783
363 1 46.3422 19.4198 89.5561
364 3 45.296 18.9971 92.1151
365 3 45.6944 17.0566 90.3514
366 1 49.076 20.7693 89.7016
367 3 47.9994 17.1719 90.8151
368 1 47.8564 19.4991 92.2104
369 1 48.5947 18.0634 88.3559
370 1 51.4563 17.333 87.9741
371 2 50.9794 19.9947 88.0288
372 1 50.4195 18.3216 90.8275
373 3 50.1844 20.8807 92.4588
374 2 53.4007 19.2734 88.4808
375 1 52.1584 20.6257 90.6467
376 1 54.9722 16.7961 88.2258
377 1 55.8974 19.2078 89.941
378 1 53.3342 17.6799 90.6353
379 4 55.1403 18.7308 92.7496
380 2 57.696 18.4193 87.8541
381 4 57.3826 16.6456 89.8986
382 1 60.6281 19.596 87.8592
383 4 60.2399 16.6921 88.5298
384 4 58.9403 18.7926 90.2095
385 4 59.3439 21.1391 91.3269
386 4 57.3736 17.4906 92.3536
387 1 61.8497 18.3812 90.5764
388 1 63.3365 20.5991 89.0392
389 1 62.1671 20.936 92.0041
390 4 64.0517 18.8401 92.7488
391 1 33.7509 21.8924 89.7643
392 1 33.16 24.7074 88.7782
393 2 35.9138 24.5161 88.8644
394 5 32.062 23.7845 91.5432
395 1 34.9314 24.2385 91.3122
396 4 36.5796 22.1239 89.7366
397 1 37.8871 25.9478 87.886
398 2 39.7603 21.9805 91.0282
399 1 38.2847 24.1146 90.5101
400 1 40.2902 23.9346 88.349
401 1 37.0178 22.167 92.6012
402 3 41.8517 22.3455 89.8366
403 5 43.0213 23.6722 87.7791
404 4 43.1526 26.1059 89.5076
405 1 41.4701 24.6304 91.2671
406 2 41.9854 21.9051 92.2918
407 1 44.179 23.4622 90.824
408 1 45.2003 21.7792 88.1893
409 2 45.4156 24.5043 88.6508
410 2 44.6459 26.0284 91.6893
411 1 47.9111 23.2239 88.3462
412 2 46.7045 21.9151 90.7339
413 1 46.9708 24.6511 90.85
414 1 49.6449 23.2894 90.9577
415 1 51.5112 22.7684 88.7124
416 2 48.8656 25.736 89.1833
417 3 50.1729 25.7112 91.5044
418 3 53.8288 24.3996 89.4301
419 5 52.4949 23.465 91.4949
420 1 54.479 21.7736 89.2203
421 1 56.4445 23.8428 89.8038
422 3 55.5181 25.2439 87.7492
423 1 51.6341 25.8316 89.3989
424 1 54.4471 21.4856 92.3433
425 4 55.1437 24.4545 92.2057
426 1 57.9392 21.2161 88.6779
427 2 56.7675 21.5004 91.0797
428 3 59.026 23.3275 89.9391
429 1 58.5057 25.9847 90.4108
430 2 61.074 21.9059 89.5315
431 1 61.0313 24.7852 89.0046
432 1 60.9135 23.733 91.8359
433 1 57.8757 23.5419 92.5724
434 2 62.7193 23.2167 87.7375
435 1 64.8926 24.8639 88.062
436 1 63.5806 23.345 90.3521
437 2 64.8542 21.196 91.5294
438 3 63.3111 25.2336 92.1014
439 1 66.0474 25.7081 90.7788
440 1 65.679 23.5889 92.7433
441 1 35.0413 27.1986 89.4518
442 5 32.8247 27.455 87.5565
443 3 35.3906 29.8931 89.4257
444 3 34.2512 29.173 91.5085
445 3 32.8708 29.2266 89.5971
446 1 32.4093 26.8462 90.8144
447 1 34.9283 26.8648 92.5493
448 2 39.8231 26.2809 89.9434
449 1 38.6096 28.5044 89.0429
450 1 39.3177 26.7056 92.5124
451 1 39.7751 29.4867 91.7443
452 1 36.9192 28.9605 91.4918
453 3 37.2263 26.4662 90.6781
454 3 41.2733 28.2402 89.8313
455 1 40.7191 30.6041 88.8239
456 1 43.0022 28.8917 87.9602
457 1 42.3256 27.4446 92.0224
458 3 42.0709 30.4058 91.3265
459 1 45.9284 27.0808 89.3191
460 3 44.9556 30.5768 88.297
461 1 46.3612 30.5557 92.5527
462 1 44.3076 29.2751 90.6644
463 2 45.7077 27.9628 92.727
464 1 47.2137 29.6252 89.7886
465 1 48.0647 27.3252 91.5232
466 1 49.8281 28.2403 88.9626
467 3 51.5155 30.2169 89.9402
468 3 50.8951 28.0673 91.3725
469 1 49.3934 30.2152 91.8195
470 2 49.3103 31.1112 89.1873
471 2 53.1179 28.2468 90.2045
472 1 52.5621 29.2718 87.7327
473 1 52.7346 26.2911 92.2027
474 1 52.3877 30.1081 92.3623
475 3 53.7641 26.8339 88.2376
476 1 55.326 26.5787 90.2607
477 1 55.5397 28.926 87.7475
478 1 54.4747 30.7461 90.2024
479 1 54.9198 28.5315 92.4029
480 1 57.3036 28.8953 90.2866
481 2 57.1721 26.9203 88.2402
482 2 59.5848 26.7173 87.8278
483 4 59.3538 31.0492 89.8698
484 1 59.5248 28.234 92.3787
485 4 61.301 30.6725 91.8427
486 1 60.7023 28.2494 89.5992
487 3 61.0488 26.2288 91.3241
488 5 61.6099 30.6076 88.2088
489 2 56.9112 26.6498 92.629
490 1 63.3129 26.5976 89.9087
491 2 63.1018 28.5012 88.0321
492 1 65.667 28.2799 89.1529
493 1 62.4125 28.09 92.5414
494 2 66.9027 28.6855 91.7451
495 4 63.3345 29.5827 90.3363
496 3 64.388 30.7535 88.1454
497 1 65.8844 31.0625 90.3764
498 2 64.882 27.4141 92.4239
499 3 34.2558 32.1146 89.0599
500 3 34.5286 34.1754 90.4484
501 1 32.6804 31.3175 91.3173
502 1 35.4715 31.6921 91.4454
503 1 37.8311 31.3038 89.6677
504 1 39.5083 33.1334 87.8279
505 1 36.5139 33.7538 88.6616
506 2 38.1021 31.539 92.3583
507 1 37.0652 34.2218 91.8655
508 2 40.1041 35.71 92.0925
509 1 40.1827 32.7969 90.8853
510 1 38.7355 35.3838 89.7668
511 1 41.6939 35.5296 89.6317
512 3 44.1922 34.5008 89.9907
513 1 43.0344 32.2252 89.647
514 3 43.8973 31.7377 92.2206
515 5 42.43 34.095 92.0095
516 1 46.0056 32.3219 90.0122
517 1 45.2932 33.9094 92.527
518 5 48.6241 33.5338 88.7899
519 1 46.677 35.3229 89.9836
520 1 48.1558 32.9953 91.9379
521 1 51.3867 34.8729 88.541
522 1 50.8917 32.761 90.7735
523 2 49.4366 35.2374 90.8522
524 3 53.3319 33.1609 89.6984
525 5 51.6545 32.019 88.0514
526 3 53.2709 32.5548 92.0644
527 1 52.1282 35.0171 92.2622
528 1 54.1495 34.8034 87.5572
529 3 55.6984 33.3673 89.3015
530 3 53.5073 35.537 90.0787
531 1 55.2851 34.322 91.6957
532 2 56.8433 31.2702 88.6266
533 4 57.1205 31.9172 91.197
534 1 58.3117 34.0698 89.3424
535 4 59.0871 35.3321 91.8855
536 2 60.8766 33.0328 88.5598
537 5 61.066 35.4856 89.2684
538 4 60.4187 33.1277 91.2752
539 1 63.8816 35.1198 89.1503
540 1 63.0991 32.4499 90.1155
541 2 65.1304 33.3771 91.6702
542 1 62.5379 35.1205 91.9357
543 3 65.1043 35.922 91.5828
544 2 34.9141 38.6713 91.5522
545 4 33.5859 36.2966 92.0825
546 1 35.9241 36.5341 90.046
547 2 37.8605 37.2153 88.0018
548 1 40.048 38.1572 89.5314
549 1 37.1318 39.2709 89.6413
550 3 38.2279 37.4217 91.5126
551 3 39.0913 39.7732 91.299
552 2 43.9384 36.5278 88.5571
553 1 43.3572 38.8846 89.8283
554 2 41.6216 40.2698 88.4831
555 3 41.6781 37.5 91.3984
556 1 44.2806 36.6451 91.5851
557 3 43.045 38.9758 92.671
558 1 41.4841 40.643 91.2991
559 2 45.866 37.9123 89.6881
560 2 45.6909 40.4419 89.2905
561 1 45.5882 39.5119 92.0218
562 1 48.8955 36.4289 88.3421
563 1 47.6852 39.1803 88.0375
564 1 47.9391 40.9723 90.7215
565 1 48.284 38.0162 90.7791
566 3 49.9781 39.689 89.3478
567 1 51.3018 37.2503 90.3709
568 1 50.5307 39.7154 92.0256
569 2 49.8646 37.0221 92.7284
570 1 56.0335 36.2452 89.2562
571 1 52.6559 39.8395 89.8026
572 2 53.5146 37.4535 88.4495
573 3 56.6705 38.6897 90.4882
574 1 55.2472 39.6993 88.4074
575 1 54.2726 37.7839 91.2466
576 1 55.3107 40.9816 91.1555
577 2 53.2673 40.071 92.7103
578 1 58.198 40.6568 89.7376
579 3 57.5703 38.6224 87.9
580 3 56.8168 36.6157 91.7702
581 1 58.9177 38.6913 92.202
582 1 58.7948 37.1877 89.6785
583 1 60.9456 39.2825 89.7228
584 3 61.6768 39.1931 92.6519
585 3 60.9539 37.1391 91.3027
586 2 57.5712 41.0531 92.6282
587 3 62.6266 37.4681 88.3102
588 1 63.4093 37.8581 90.7694
589 1 39.3357 41.4405 89.2837
590 2 41.2791 43.288 92.3923
591 4 38.7027 42.1488 92.1751
592 3 41.8565 42.7955 89.83
593 1 43.7083 42.0557 88.0014
594 1 43.8226 43.9101 91.5279
595 3 43.9781 41.4235 90.6542
596 1 46.1186 43.2462 89.5994
597 3 45.9305 42.2439 92.0754
598 3 46.0092 44.7795 92.699
599 2 48.9133 41.7294 88.299
600 1 48.4736 43.7204 91.6599
601 4 47.0768 45.9407 90.547
602 1 50.7765 42.2286 90.1843
603 1 48.9652 44.3989 88.7598
604 1 51.1527 45.0961 90.7677
605 3 49.2488 46.1936 92.4353
606 2 51.7992 43.8912 88.1027
607 1 52.9315 42.8215 92.1563
608 5 53.9284 44.7788 89.9225
609 1 56.2112 42.9448 89.1246
610 2 53.4995 42.2962 89.3964
611 1 55.7966 43.8868 92.0619
612 2 58.2448 43.0218 91.261
613 2 60.1569 41.2168 91.6977
614 1 37.445 15.7205 93.7072
615 2 38.4014 15.9726 96.5288
616 3 39.9699 15.738 93.1332
617 4 39.2343 13.8412 95.0861
618 1 41.2054 16.1593 95.384
619 1 41.004 14.4965 97.8536
620 1 42.0564 13.3335 94.7258
621 3 43.3856 13.02 96.9482
622 1 45.12 11.7528 95.2197
623 1 44.7545 14.5219 94.214
624 1 46.29 13.9934 96.8039
625 1 43.707 15.56 96.8109
626 2 47.3724 13.9697 94.3297
627 1 48.1498 11.4207 94.9096
628 1 51.0644 11.8798 95.7549
629 1 50.2354 14.0733 93.996
630 5 51.1134 14.73 96.9178
631 3 48.8675 13.5106 96.3331
632 1 47.3158 11.4949 97.8545
633 5 53.1093 14.3277 94.1184
634 1 52.126 11.9062 92.9488
635 1 55.4241 12.7618 93.3579
636 1 55.9279 15.4044 94.5168
637 1 54.0254 14.8983 96.8118
638 1 56.3985 13.1779 96.6465
639 3 56.5173 15.9283 97.2868
640 3 52.6725 12.502 97.8296
641 2 53.8991 12.2746 95.6219
642 3 57.9834 13.5233 94.5489
643 1 59.0054 16.059 94.2589
644 1 58.9751 14.8911 96.9646
645 4 61.8114 16.1487 97.0965
646 5 34.4498 19.3137 94.4648
647 1 34.6764 19.171 97.3198
648 5 37.008 19.4974 93.4562
649 1 38.9684 17.987 94.8128
650 3 36.2903 17.4945 95.4697
651 1 37.3034 19.8104 96.4201
652 1 39.8915 20.2734 93.0818
653 2 39.934 20.7192 97.0556
654 2 41.2347 17.8011 92.9991
655 1 39.5645 18.1481 97.8781
656 1 41.5617 19.1755 95.5924
657 4 42.97 19.7681 93.2334
658 5 43.743 17.2901 94.243
659 4 46.0328 19.1841 94.6328
660 1 44.3296 18.5723 96.9026
661 2 46.0084 16.5733 95.8362
662 3 42.0196 17.294 97.8225
663 1 48.5864 16.1831 95.3134
664 1 46.4968 16.7749 93.0665
665 1 47.5567 18.4505 97.1223
666 2 49.502 17.0346 92.968
667 1 49.3936 19.2284 94.7564
668 3 50.143 17.5993 97.2043
669 3 49.7625 20.0715 97.7776
670 3 53.7796 16.7335 93.3963
671 1 51.5797 16.7252 95.0173
672 1 52.204 19.0059 93.2729
673 1 51.9493 19.5039 96.3371
674 2 54.1125 17.6278 95.6617
675 1 54.6208 20.3417 95.1828
676 3 56.6474 20.2858 96.9385
677 3 55.4511 18.0627 97.7538
678 1 56.7789 18.0724 95.2982
679 1 57.3876 20.4692 93.4869
680 5 59.0963 19.876 95.6725
681 1 59.9386 18.856 93.0322
682 3 60.5466 17.7617 95.5073
683 2 61.7694 20.0811 94.6594
684 1 61.3193 19.0834 97.5996
685 1 58.5785 17.8234 97.551
686 1 62.0521 16.925 93.5293
687 1 63.4753 18.41 95.7848
688 4 65.1598 20.9034 94.3735
689 1 33.8685 21.7142 92.9176
690 1 34.6817 24.1364 94.4295
691 3 35.8628 21.5684 94.9231
692 1 31.8036 23.487 94.5953
693 1 33.7294 21.9797 96.447
694 2 32.5893 25.7235 93.3282
695 3 32.9703 24.7841 96.5773
696 2 35.2741 24.3131 97.1474
697 2 38.7634 21.4745 95.0531
698 1 37.5275 23.674 95.5178
699 5 37.1426 25.0602 93.0618
700 3 36.3095 25.974 95.4481
701 2 36.4093 22.1509 97.3511
702 1 37.4769 25.5706 97.8723
703 1 39.7074 23.491 93.2665
704 1 40.4093 24.2544 95.9648
705 3 41.237 21.8725 94.9272
706 3 41.3029 25.8442 94.0343
707 1 43.0116 23.7865 93.8372
708 5 43.6844 21.2641 95.4675
709 2 43.0384 24.6927 96.5085
710 1 42.0317 22.4599 97.609
711 1 45.2281 21.6745 93.0701
712 2 45.7912 24.3907 93.1953
713 1 45.4077 23.7714 95.7357
714 4 45.0127 21.5107 97.71
715 2 48.0824 23.8857 95.549
716 4 47.0981 21.3065 95.71
717 1 48.0868 22.3594 93.2807
718 3 48.4156 24.9771 93.0371
719 2 47.6637 25.8597 97.3518
720 1 50.1449 21.9754 95.8044
721 1 50.7419 24.0163 93.7557
722 5 49.9515 25.4999 96.1972
723 3 46.7844 23.6652 97.9454
724 2 52.0977 21.5886 93.8529
725 2 52.273 25.9073 95.1444
726 3 52.802 21.975 96.3132
727 5 52.1647 24.2232 97.2534
728 1 53.6096 23.7638 94.4462
729 2 56.0158 22.5281 94.3211
730 1 56.6008 25.0613 94.9351
731 1 55.1388 23.1448 96.8811
732 3 57.9952 25.5 97.1562
733 3 59.2864 24.6327 95.1502
734 1 57.9946 22.55 96.2186
735 3 59.2309 25.6844 92.9932
736 2 61.4029 23.7425 95.9786
737 1 60.0791 22.1469 94.1399
738 3 60.6938 21.5923 96.7356
739 1 61.5886 25.7389 94.1098
740 1 63.0629 23.0321 93.9543
741 1 65.4322 23.7508 95.8217
742 1 63.3225 21.4073 96.5354
743 3 64.3878 25.5602 94.0925
744 2 63.2986 25.3431 96.1789
745 1 33.9366 27.0552 95.3603
746 2 33.857 29.5957 96.1186
747 1 31.1388 26.5988 95.6058
748 2 31.3456 29.9233 95.5816
749 1 32.3443 28.6731 93.3067
750 1 32.0736 28.5595 97.8379
751 1 35.3373 29.66 93.9566
752 1 38.9763 26.9502 95.6684
753 2 37.1076 27.6164 93.8623
754 1 36.3534 28.2961 96.6491
755 1 38.3911 29.853 94.4806
756 2 38.3051 29.8172 97.2739
757 2 40.9419 28.3832 94.1147
758 1 40.7453 29.7642 96.3461
759 1 43.4901 29.587 93.7977
760 1 41.7625 26.9941 96.5675
761 2 43.5976 28.8596 96.4913
762 1 43.9615 26.5908 94.3872
763 1 46.1253 29.0479 95.5368
764 1 45.0732 26.534 97.119
765 1 45.0444 30.7257 97.7844
766 1 47.0528 26.3507 94.6794
767 3 48.0805 28.7895 93.7377
768 3 47.9021 30.3747 97.3058
769 1 50.1626 27.0591 93.7673
770 1 49.0129 28.2028 96.2665
771 3 50.4682 29.6396 94.1918
772 1 50.8676 30.5393 96.5986
773 1 52.8663 28.4076 94.6801
774 1 51.7875 27.6482 97.4119
775 3 54.5548 26.3367 94.0306
776 2 55.7078 28.1955 95.054
777 1 54.4724 26.245 96.8244
778 1 54.2594 29.6738 96.9784
779 2 53.0015 31.1016 94.9979
780 4 57.4417 29.7713 93.0948
781 4 57.0077 30.2927 95.5955
782 1 58.3835 27.3317 95.0145
783 4 59.7133 30.7747 94.1198
784 1 59.4509 29.3365 96.9094
785 2 61.0154 28.2868 94.9454
786 1 60.6693 26.3918 96.9287
787 1 56.8009 27.988 97.6844
788 2 62.3818 30.279 94.4499
789 1 62.3577 29.9408 97.1688
790 1 63.8263 27.9246 95.1382
791 1 66.8554 26.1973 93.8043
792 1 66.7054 29.0401 94.6654
793 3 65.7223 26.3923 96.2764
794 1 64.6337 30.1485 92.8338
795 1 65.8233 28.7332 97.5665
796 3 64.6309 30.4086 95.6269
797 1 32.9474 31.8268 97.3158
798 1 32.0789 33.8888 95.3009
799 5 33.1428 31.4469 94.2186
800 3 34.5865 33.2653 95.7088
801 1 34.2474 35.9038 95.0583
802 1 33.565 34.9284 97.7902
803 5 34.1849 33.7817 93.0458
804 1 35.9863 31.3241 96.8546
805 2 36.0439 34.1441 97.531
806 4 36.4399 32.244 94.1629
807 4 39.3779 33.5635 93.5191
808 1 38.7842 32.396 96.159
809 4 36.8601 34.5785 95.008
810 1 38.4734 35.1875 97.5346
811 4 41.0984 31.437 93.6225
812 4 40.4382 34.9181 95.4086
813 4 41.2368 33.5378 97.3765
814 4 42.7703 33.6328 94.6048
815 4 42.7281 31.4757 96.0122
816 4 45.0325 35.2502 95.0615
817 1 45.3196 31.9748 94.9105
818 5 44.1944 33.5451 97.1678
819 1 42.8942 36.1711 96.7365
820 1 48.362 31.2771 94.8091
821 4 47.5339 34.1219 94.7675
822 1 47.1403 32.8631 97.3069
823 4 48.562 35.3876 96.9771
824 2 49.5777 34.7102 93.3659
825 1 50.9729 32.4227 93.832
826 1 51.263 35.1673 95.3776
827 3 49.8056 33.09 96.276
828 1 55.1831 31.3208 93.4737
829 1 52.5642 32.9013 97.1051
830 1 53.8291 33.7395 94.4658
831 3 55.1367 32.0827 96.1815
832 4 56.4624 34.5101 95.721
833 1 53.9356 35.8697 96.6205
834 3 55.2569 33.7778 97.8762
835 4 57.4952 33.3909 93.4015
836 4 59.2621 35.2691 96.1833
837 4 58.3899 32.5739 95.9063
838 4 60.2718 33.913 93.892
839 4 61.1626 32.3261 95.8225
840 2 61.1649 34.3395 97.6986
841 1 63.0577 32.6408 93.4048
842 1 62.6024 35.1236 95.3419
843 1 66.0299 32.3715 94.1742
844 1 66.7782 31.5496 96.9185
845 1 63.8781 32.7476 96.4361
846 2 65.7856 34.6295 96.2664
847 3 64.7711 34.8128 93.8464
848 1 35.066 38.7148 94.7558
849 5 36.1828 36.7303 93.0259
850 4 36.1313 39.5783 97.372
851 3 34.2394 37.5701 97.1943
852 4 38.6089 36.359 94.1774
853 1 37.0786 39.6374 92.8181
854 4 38.0555 38.7676 95.2883
855 2 36.5758 36.8428 96.2582
856 1 38.712 38.1624 97.9077
857 1 40.1863 38.5963 93.3357
858 2 40.4552 37.4305 95.9321
859 2 40.2103 40.1398 96.3865
860 1 42.2671 36.462 93.8021
861 1 42.5888 39.1889 95.2838
862 2 44.7142 37.7831 94.1091
863 1 45.5291 40.3129 95.1665
864 4 44.8528 38.2107 97.1562
865 3 43.7017 40.4837 97.5592
866 1 47.1515 36.2237 92.804
867 4 46.7298 37.2 95.4865
868 4 47.9361 38.8867 93.617
869 4 47.7069 37.8628 97.7003
870 4 49.3846 37.3205 95.2441
871 4 48.4586 40.0259 96.3141
872 4 50.5462 39.9024 94.8137
873 1 52.289 37.6606 93.5587
874 5 54.8741 36.3393 93.781
875 1 54.1139 39.1493 95.4345
876 1 56.1777 38.9019 93.3244
877 4 56.4367 37.397 96.016
878 4 51.7991 37.8741 96.3501
879 4 51.8288 40.3648 97.4688
880 2 55.371 39.154 97.7653
881 4 57.8541 36.3342 94.0482
882 1 57.1572 40.3888 95.9051
883 4 59.0552 38.1247 95.8913
884 1 60.7543 36.9503 93.9446
885 1 59.7796 40.5807 94.3605
886 2 61.3191 36.8728 96.8767
887 1 63.7263 37.4182 93.652
888 1 62.0125 39.1779 95.6525
889 5 64.1652 37.4542 96.5265
890 4 37.9557 41.4186 95.2429
891 5 40.6396 41.3372 94.0781
892 5 40.1662 43.0223 96.3311
893 1 43.5348 41.5313 93.3485
894 1 43.0368 44.1607 94.6155
895 2 42.5188 41.8411 95.9643
896 2 45.6407 43.0236 94.373
897 1 44.8838 42.8623 96.9037
898 1 45.5543 45.431 95.7306
899 1 42.4889 44.2949 97.7355
900 1 48.0472 44.6786 94.4043
901 1 47.9324 41.6564 93.7922
902 3 47.446 42.5301 96.3682
903 3 50.401 42.1498 92.9188
904 1 50.1143 42.9336 95.5715
905 4 51.4451 44.5241 97.7092
906 4 50.4238 45.977 95.399
907 3 50.8075 44.4335 93.3426
908 1 48.2623 44.8692 97.4051
909 4 52.4886 41.5808 94.8448
910 4 53.2792 45.6223 92.8099
911 4 52.8935 44.1646 95.2734
912 1 55.2218 41.8585 94.175
913 4 55.5324 44.7216 94.9467
914 1 54.3932 41.688 97.22
915 5 59.3808 42.1092 96.9136
916 1 58.0063 43.0623 94.3144
917 5 56.7579 43.3115 97.0949
918 1 38.6054 15.5324 99.234
919 1 40.7723 14.381 101.089
920 2 44.8482 13.671 98.9096
921 2 42.5647 12.6079 99.3396
922 1 43.1468 15.4763 99.7808
923 2 45.6409 14.8127 101.013
924 1 43.5412 13.2652 101.827
925 1 45.6599 11.703 100.462
926 2 44.601 11.1789 97.98
927 2 47.3224 13.6498 99.6121
928 1 48.5067 15.4801 98.1523
929 1 49.5676 14.1688 101.077
930 1 47.1061 13.1908 102.585
931 1 50.0077 12.5563 98.5825
932 2 48.5448 11.5281 100.711
933 3 47.81 16.1636 100.712
934 3 47.5068 15.8496 103.036
935 4 50.2929 11.9022 102.93
936 1 52.1437 11.985 100.665
937 1 52.1366 14.4008 102.657
938 1 52.3886 14.5533 99.5198
939 2 54.8141 13.2055 98.925
940 5 54.6816 13.6886 101.525
941 1 55.0342 16.0358 99.7389
942 1 57.3898 14.2533 99.4241
943 2 56.7324 15.4 102.005
944 1 60.1184 16.1654 99.5859
945 1 35.3207 18.8793 100.258
946 2 36.8774 17.6261 98.1958
947 1 38.2513 18.0017 100.813
948 1 37.6005 20.4508 99.2686
949 1 38.7054 20.4336 102.49
950 1 40.5166 20.3481 99.8577
951 2 40.768 16.983 100.069
952 4 39.489 16.3495 102.881
953 2 40.8373 18.6437 102.037
954 4 36.2863 18.8547 102.996
955 1 45.8072 16.502 98.8253
956 3 42.3398 19.8976 98.0015
957 1 43.0719 18.4146 100.058
958 1 42.5909 16.5597 102.525
959 5 45.6991 19.4015 99.3482
960 4 45.7432 20.1427 101.906
961 4 43.3428 19.5306 102.721
962 1 45.4953 17.3543 101.822
963 1 48.4132 18.6443 100.024
964 1 50.1644 16.8217 102.408
965 3 50.1618 19.5051 101.942
966 5 50.4746 16.6568 99.6341
967 1 51.5214 19.3196 99.6021
968 1 47.9088 18.752 103.107
969 1 52.8441 17.2445 98.0454
970 1 52.6973 18.8739 102.395
971 3 52.6887 16.6592 101.045
972 3 54.1851 18.5162 100.135
973 1 54.1132 20.4396 98.2582
974 1 54.8791 20.8426 101.337
975 3 56.118 17.9207 101.596
976 1 54.4595 16.523 103.11
977 1 56.8313 19.4426 99.5313
978 2 57.5084 16.8812 99.7255
979 5 59.6986 19.0311 100.114
980 1 61.4026 18.1616 102.57
981 2 58.8999 20.7218 98.2087
982 2 60.4019 20.6281 101.992
983 1 57.6377 20.1217 102.396
984 1 58.7337 17.2253 102.105
985 2 62.2632 18.0801 99.9216
986 3 63.7824 19.9268 98.7313
987 1 63.1719 20.2116 101.557
988 2 34.8944 21.2269 98.9653
989 1 33.5601 23.6001 99.1253
990 1 34.4865 23.8173 102.163
991 5 33.6651 21.2153 101.207
992 1 31.5239 25.7554 98.5743
993 3 35.7422 25.69 100.252
994 2 33.3265 25.8331 100.748
995 2 36.3107 21.2249 101.568
996 1 38.9865 22.9141 98.2086
997 3 38.9739 22.5249 100.884
998 1 36.4615 23.2652 99.8676
999 1 38.4805 25.4144 100.611
1000 3 39.9557 24.2319 102.532
1001 1 37.4672 23.4271 102.99
1002 1 41.3249 23.744 100.223
1003 2 40.3103 25.4556 98.3965
1004 1 43.482 21.4376 100.147
1005 2 44.2693 23.8506 98.5758
1006 2 43.946 24.0252 101.098
1007 1 41.5435 21.7138 102.391
1008 1 46.2946 22.5706 100.373
1009 1 46.177 25.5407 99.7329
1010 1 42.9125 26.1208 99.221