# LAMMPS data file written by OVITO Pro 3.12.4

446 atoms
5 atom types

0.0 250.0 xlo xhi
0.0 90.51 ylo yhi
0.0 181.02 zlo zhi

Atoms  # atomic

1 5 35.6721 45.6448 72.3279
2 3 39.6474 44.058 70.0085
3 1 41.3867 45.9829 70.9466
4 1 38.3076 46.2526 70.7498
5 1 37.5357 43.5179 71.7977
6 1 40.3784 43.5668 72.5286
7 3 44.0922 45.9781 71.3866
8 2 42.9366 43.6623 71.4217
9 1 45.4955 43.8616 72.6634
10 4 47.7968 46.0645 71.8594
11 2 31.441 51.7928 71.8652
12 1 37.1482 48.2978 68.5251
13 5 33.1702 49.4828 70.9321
14 1 35.7639 50.4964 70.0259
15 3 33.916 51.3489 72.3835
16 2 35.7612 47.8925 70.8979
17 1 41.5528 52.0609 72.6063
18 1 41.392 50.7916 69.8442
19 1 38.6107 51.0331 68.904
20 1 38.8046 51.2429 72.1026
21 1 40.4185 48.7829 71.9543
22 2 38.0141 49.0796 70.8594
23 1 40.0397 48.1312 69.0539
24 2 42.6814 48.2748 70.1474
25 3 44.1764 50.8992 70.0135
26 3 43.0538 50.0138 71.934
27 1 45.2988 48.4069 70.8917
28 1 44.4544 52.2956 72.5469
29 1 46.6715 51.1266 71.0183
30 3 48.9283 51.5474 72.5782
31 1 47.924 48.9892 72.7364
32 2 30.2877 44.6441 76.6518
33 1 32.4751 46.0647 76.9508
34 3 33.6096 45.6438 74.504
35 1 33.1551 43.3471 76.0493
36 5 35.6897 41.9522 76.7499
37 1 35.6284 43.7443 74.4251
38 4 38.1001 42.1942 74.4547
39 1 40.5176 44.127 75.3394
40 4 40.5009 41.0765 74.8873
41 4 37.792 44.1655 76.3878
42 2 38.1722 45.0667 73.8366
43 2 40.3776 46.3199 73.4366
44 5 42.7483 41.4928 76.7315
45 1 42.8686 42.1729 73.832
46 1 45.2383 42.8777 75.4773
47 2 42.8412 44.0926 76.6435
48 1 43.0594 45.0261 73.9752
49 1 45.0662 45.7024 76.4168
50 1 47.5521 44.8708 74.9156
51 1 49.5433 45.9558 76.7905
52 2 32.3972 52.133 76.3382
53 1 30.3295 52.2521 74.603
54 2 29.7909 49.5776 75.3536
55 5 31.4184 47.3832 74.6073
56 1 31.8712 49.5295 77.0865
57 5 29.8538 47.3665 77.1559
58 1 32.4281 50.1573 74.1846
59 2 29.5562 51.496 77.2362
60 1 34.2527 48.0179 73.1941
61 1 36.2042 50.2696 72.8904
62 2 33.7013 48.1382 75.7968
63 3 34.4329 50.1839 77.1521
64 1 35.9755 46.6021 75.4296
65 3 35.7093 49.3198 75.2642
66 1 34.7344 51.933 75.0036
67 1 37.0787 51.2342 76.7605
68 1 37.6975 47.68 73.1851
69 2 38.1421 49.5632 74.8985
70 1 39.026 46.8499 75.8009
71 2 40.5898 48.7665 74.5605
72 1 39.9287 51.4586 75.0423
73 1 40.0403 49.3226 77.185
74 5 45.2176 49.5965 73.4052
75 1 42.1508 47.012 76.1144
76 1 42.8714 47.7473 73.1299
77 1 45.6632 46.7079 73.4787
78 3 44.4213 48.1873 75.4421
79 1 45.7112 50.5283 76.1437
80 1 42.8036 50.375 74.7522
81 2 42.8579 49.5268 77.3012
82 1 41.8948 51.9918 77.2295
83 2 49.3319 46.9224 74.0969
84 3 49.8639 48.5297 76.2248
85 3 46.7725 51.5179 73.7321
86 1 47.2727 48.0642 75.513
87 4 50.5239 49.5316 73.8051
88 1 48.7269 50.9194 75.4296
89 3 31.877 43.5309 78.3402
90 1 31.8099 43.303 81.0247
91 1 30.3696 45.532 79.4371
92 1 35.686 44.9029 80.4953
93 1 36.7894 41.868 81.6495
94 1 34.2545 42.5122 79.3688
95 4 33.1887 45.4043 79.5804
96 5 35.1756 44.7373 77.5186
97 1 37.3586 42.911 78.944
98 4 37.7016 46.023 78.4808
99 4 39.5288 44.6097 80.0729
100 1 39.7408 41.7941 80.5997
101 1 39.9994 42.2217 77.5816
102 4 40.527 45.4351 77.9063
103 2 42.4083 40.8811 79.3709
104 5 42.0129 43.4321 79.2116
105 3 43.2881 45.7395 78.4829
106 1 45.6417 45.5373 79.5643
107 1 42.2337 45.5938 81.0867
108 3 44.0679 43.7079 80.8173
109 1 44.7625 42.9433 78.4011
110 2 44.8714 41.3534 80.7048
111 1 46.8983 43.4583 81.0628
112 2 47.2161 44.1379 77.6857
113 5 48.694 45.4855 79.7132
114 1 29.8915 49.4371 79.2712
115 1 29.0026 52.1719 80.2025
116 1 31.5959 50.4795 81.8087
117 4 30.8414 47.7144 81.5477
118 1 31.6671 51.9685 79.0357
119 2 31.9515 47.6709 79.1324
120 4 28.6754 49.5347 81.88
121 1 34.6201 47.6522 78.3042
122 2 33.7993 52.261 80.6263
123 1 35.5357 50.2255 79.6161
124 4 36.7111 47.5437 80.5938
125 1 33.7909 47.8744 81.2789
126 3 32.9949 49.8175 79.5413
127 5 37.1575 48.5026 77.3746
128 1 36.7293 51.8255 81.8601
129 3 39.3544 51.8344 77.9219
130 1 41.0849 50.7732 79.8861
131 1 38.3531 49.8802 79.6806
132 3 41.7344 48.4467 81.707
133 4 39.4721 47.2473 80.7636
134 1 41.7685 47.8156 79.0993
135 1 43.7262 49.9015 80.1908
136 3 44.0989 47.3628 80.6571
137 4 44.5161 51.9311 78.2745
138 1 44.9867 48.1994 78.0893
139 5 46.4111 50.6041 79.8808
140 4 50.8474 50.6374 77.7201
141 2 47.2201 52.2377 77.7425
142 5 47.9664 49.5302 77.9376
143 2 47.2938 46.7496 77.7624
144 1 49.0199 51.86 79.7293
145 2 46.8925 47.8651 79.8915
146 1 51.1708 50.151 80.9143
147 5 48.5485 49.2003 81.1426
148 1 50.0473 47.9441 78.9789
149 4 31.8745 44.0003 84.0737
150 4 30.2051 45.3479 82.4314
151 2 34.1885 44.5828 85.0336
152 2 33.022 45.4459 82.098
153 1 36.7149 43.3157 84.8223
154 1 34.3858 43.1783 82.6571
155 1 35.5128 46.1461 83.2598
156 3 37.0605 45.8715 85.4412
157 1 41.6598 42.0754 84.8471
158 1 39.6057 44.7182 84.8499
159 2 39.1718 42.3483 86.2298
160 5 39.0926 41.9159 83.5006
161 2 40.5685 43.9155 82.4242
162 3 40.888 46.5168 83.1624
163 1 37.9395 44.5629 82.3711
164 1 42.7492 44.5936 83.9663
165 2 44.8407 45.4359 82.2181
166 2 44.1595 43.2274 85.9257
167 1 44.957 42.7364 83.2284
168 4 45.7662 45.3205 84.5701
169 1 42.3806 42.0208 81.9435
170 4 47.7038 43.7408 83.9599
171 3 49.3139 44.709 82.214
172 1 47.2735 46.4536 82.1821
173 5 29.2479 51.9268 83.1785
174 4 30.0749 49.1514 84.4147
175 1 32.3062 47.0828 84.085
176 4 29.4491 51.7507 85.9511
177 2 36.7369 49.1738 82.4915
178 2 36.6388 48.3672 85.147
179 1 35.8139 50.8373 84.4327
180 2 34.3565 50.2899 82.0713
181 2 34.5922 48.5302 83.8174
182 1 32.6975 50.1317 84.5939
183 1 34.5962 47.0386 86.1217
184 5 41.3421 51.4589 85.0156
185 1 41.5867 46.7692 85.8282
186 2 40.9744 48.8486 84.3549
187 1 38.654 50.2664 85.2313
188 1 39.5243 49.9701 82.4133
189 1 38.453 47.3398 83.5013
190 3 41.2969 52.0332 82.4018
191 1 45.6657 48.8992 82.1684
192 2 43.6705 51.7857 86.2447
193 2 45.891 47.8601 84.9241
194 1 43.5552 49.0988 85.9359
195 1 45.7897 50.6876 84.649
196 1 43.076 50.2857 83.1308
197 1 43.5134 47.3642 83.4825
198 2 45.1541 51.6841 82.1478
199 1 48.4556 51.9206 85.3733
200 1 47.8969 51.5519 82.489
201 3 47.7507 48.974 83.6358
202 1 50.3227 47.2108 81.9341
203 1 50.1789 49.7434 83.79
204 1 48.0384 49.1258 86.2648
205 1 48.9261 46.7563 84.5478
206 4 32.2308 45.7065 86.6936
207 3 35.6527 44.6592 87.1084
208 1 41.5902 44.074 87.077
209 1 38.3719 44.6533 87.5543
210 3 40.4529 46.2517 88.3057
211 1 44.1569 45.9393 86.7878
212 4 47.2298 46.0975 86.812
213 3 32.1934 48.4055 86.6086
214 1 31.8597 51.0274 87.4232
215 3 33.7025 50.7165 89.4244
216 1 34.6068 49.9386 86.9297
217 3 35.6441 51.8842 88.4445
218 1 36.5603 46.9827 88.341
219 1 36.2692 49.7041 89.8372
220 1 33.7571 48.0057 88.8707
221 2 37.1263 49.4592 87.2921
222 3 38.6687 50.6615 91.0324
223 1 38.6325 51.2337 88.4496
224 1 40.896 49.6151 87.2329
225 1 39.1074 48.3767 89.4071
226 2 40.9987 50.4606 89.8762
227 1 38.8717 47.4915 86.4862
228 2 42.5355 47.7081 88.3915
229 2 46.0263 50.9586 87.3298
230 1 43.6092 50.3251 88.7449
231 1 45.639 48.3024 87.8358
232 2 31.6727 56.6118 71.9959
233 3 31.9622 54.3117 70.835
234 1 30.0073 54.5167 72.631
235 1 36.1014 54.8206 69.3132
236 2 36.3758 57.26 70.6827
237 3 37.2404 52.726 70.5387
238 2 35.5887 53.0589 72.2566
239 1 34.3539 55.4848 71.5861
240 1 33.986 52.7668 70.1122
241 3 36.2542 52.372 68.1975
242 3 40.9254 53.1177 68.4139
243 3 38.4495 53.7591 68.4806
244 3 40.361 56.0253 72.0104
245 1 38.8481 56.2676 69.6163
246 1 39.868 53.6382 70.759
247 1 37.4757 55.0292 72.0006
248 5 38.5293 57.6754 72.4744
249 1 41.8385 55.5968 69.6813
250 2 43.5201 57.5077 70.8262
251 1 42.6701 54.9099 72.4981
252 2 44.8768 54.6078 70.8467
253 2 42.8239 53.0955 70.3272
254 1 45.4103 56.734 72.7307
255 1 47.1969 53.8557 72.2941
256 1 36.5247 59.7096 72.0168
257 1 33.9015 58.3847 71.6443
258 3 39.2208 60.2744 72.0387
259 1 40.807 58.3564 70.7443
260 3 38.2367 58.9177 70.0711
261 1 44.8449 59.5909 72.4507
262 1 42.1126 60.6223 72.1656
263 1 28.6038 54.6066 75.2651
264 2 31.5901 56.4643 76.6426
265 3 31.283 54.8151 74.8877
266 1 30.1197 57.1226 74.4183
267 3 29.1694 56.519 77.0709
268 1 30.6257 54.0764 77.3202
269 1 32.8972 53.6002 73.3296
270 1 35.5274 57.0763 75.9759
271 2 35.8652 57.2192 73.2379
272 1 33.1778 56.763 74.2056
273 1 36.6381 54.2839 76.5286
274 2 35.3345 54.8017 74.1128
275 1 33.5781 54.6444 76.2783
276 2 39.7637 54.1175 73.4969
277 1 40.197 56.5561 74.7915
278 3 38.0979 56.6877 76.7709
279 2 37.6565 55.8534 74.5042
280 1 39.5719 54.1163 76.3921
281 1 37.4733 52.8654 74.1357
282 2 41.7964 53.5442 74.8685
283 1 42.3647 57.8808 73.2868
284 3 45.0598 54.4684 73.8538
285 1 43.1763 55.7722 75.2933
286 4 44.1851 52.8802 75.5768
287 2 45.8781 56.2156 75.4664
288 1 49.7213 53.3961 77.0539
289 1 48.1383 56.1655 74.0473
290 1 49.7419 53.5819 74.0954
291 3 47.9275 55.5608 76.7736
292 3 50.2051 55.7927 75.8737
293 1 47.0609 53.5404 75.3562
294 3 31.9164 59.0215 73.3679
295 1 31.9635 59.0321 76.0662
296 3 34.5268 59.394 76.996
297 2 33.3542 61.5244 76.6831
298 1 34.5634 59.6668 74.3569
299 1 36.1778 61.4361 76.3729
300 1 39.709 58.7723 76.9775
301 2 40.1376 59.3074 74.088
302 1 40.1889 62.3173 73.5336
303 1 41.4832 63.3624 76.2236
304 2 37.4574 61.5047 73.8119
305 1 37.5595 58.9133 74.8124
306 1 39.1214 61.4597 76.0424
307 2 44.8406 61.2283 74.6039
308 1 46.4563 60.2648 76.7079
309 1 44.5552 58.5687 75.2726
310 3 42.09 58.0572 76.1995
311 4 43.1002 63.0006 73.7557
312 1 42.1872 60.559 75.2734
313 1 44.1387 62.278 77.0808
314 3 46.9457 58.6778 74.2096
315 1 48.8257 58.1952 76.1037
316 2 30.0318 54.8404 79.8526
317 1 30.762 57.3346 79.1291
318 4 27.9721 54.1375 78.2044
319 1 31.3104 53.4903 81.8339
320 1 36.008 56.9695 81.5903
321 2 33.133 57.3563 80.6253
322 2 35.5183 54.0858 80.8943
323 1 32.7754 54.8413 79.3756
324 1 35.7974 55.8074 78.8421
325 4 33.4717 57.2417 77.9601
326 1 34.5543 52.6471 78.1419
327 3 40.2424 56.3323 80.1656
328 1 38.2948 55.032 81.5095
329 2 39.2392 52.3933 81.0231
330 3 38.4814 55.2646 78.6499
331 1 40.5932 53.8329 79.2878
332 1 37.3517 52.9842 79.212
333 2 40.7706 56.1999 77.5807
334 1 38.2005 57.768 79.3987
335 1 41.8241 57.5627 81.8496
336 1 45.5294 54.5585 77.6981
337 3 44.2333 57.7043 80.5244
338 5 42.848 55.5881 79.8192
339 1 46.1833 53.457 80.4128
340 1 43.1933 52.8869 80.6555
341 2 42.6751 54.4774 77.5301
342 1 44.1228 57.054 77.783
343 1 46.5934 56.5054 79.8309
344 1 50.8488 54.1264 79.7159
345 1 48.6487 54.7807 81.5903
346 3 48.1161 54.3709 78.9182
347 1 49.5631 56.5679 78.5639
348 3 48.8392 57.4959 81.023
349 2 46.6585 57.571 77.343
350 1 31.1363 59.3495 81.3525
351 1 32.5881 59.9024 78.9033
352 2 36.9105 58.9935 77.3987
353 2 32.9777 61.682 81.1112
354 1 35.1951 61.4203 79.2358
355 2 36.7325 59.6458 80.9824
356 4 35.2219 58.5756 79.3118
357 2 39.4763 63.2602 78.2371
358 1 41.8115 58.2112 78.9662
359 1 41.3894 61.1223 78.2341
360 1 37.4882 63.306 80.2483
361 1 38.1828 60.8483 78.8661
362 1 40.6802 62.6059 80.7487
363 2 40.1115 59.6843 80.2656
364 1 45.7585 61.5119 79.528
365 3 45.4427 59.0201 78.9517
366 1 43.3104 60.2006 80.5888
367 3 43.1925 62.7184 79.616
368 1 46.5091 59.1534 81.4335
369 3 43.6253 59.7563 77.579
370 1 48.1613 59.2392 78.9591
371 4 28.5029 54.5544 81.9581
372 5 29.8591 54.6079 84.405
373 2 31.4884 52.475 84.5612
374 1 31.003 56.5091 82.3132
375 2 31.3592 56.7746 85.62
376 1 33.975 52.8869 86.2149
377 4 32.6709 54.8794 84.5104
378 1 36.9113 52.6269 86.3282
379 2 35.7307 55.1145 86.1561
380 1 34.4424 57.0244 84.1794
381 4 33.6363 55.296 82.0535
382 1 36.15 54.2969 83.6508
383 1 33.8113 52.6044 83.1997
384 3 36.2723 57.4287 86.004
385 3 37.3763 56.6571 83.8383
386 1 38.8502 57.9489 85.791
387 5 41.1895 54.2697 85.1745
388 1 38.4679 55.0373 85.5486
389 1 41.2511 54.6611 82.2447
390 3 40.0917 56.3764 83.8937
391 1 38.98 52.8481 83.6769
392 2 41.329 56.8397 86.2417
393 3 39.5361 52.7018 86.4453
394 1 44.5531 55.5341 82.0673
395 5 45.7788 53.3303 85.9309
396 4 45.3976 55.9534 84.7769
397 3 42.7562 56.2155 84.1693
398 4 46.4977 53.8043 83.3555
399 1 43.5703 53.2726 83.8904
400 1 44.0357 57.9056 86.2974
401 4 47.2576 56.9884 83.1845
402 4 48.251 54.818 85.0912
403 4 50.5933 52.6672 82.5931
404 1 32.124 58.8852 84.0615
405 2 34.4139 60.6892 84.5624
406 1 35.6682 62.0069 82.2687
407 1 36.577 59.2371 83.8463
408 1 34.1511 59.4119 81.9653
409 1 37.3826 62.0471 84.7397
410 1 40.6624 62.1656 84.1081
411 3 39.1381 59.9975 84.2444
412 2 38.6195 63.734 82.8022
413 1 38.5771 61.1328 82.0151
414 3 41.2441 60.245 82.3397
415 1 41.4383 58.772 84.4959
416 1 38.968 58.1247 82.2577
417 1 44.2001 58.4419 83.1777
418 1 43.3969 60.9037 84.7414
419 5 46.1563 59.5365 84.7539
420 3 42.8085 62.2255 82.3475
421 2 45.1257 61.2114 82.5272
422 1 31.2221 53.9468 86.9467
423 2 37.1166 52.6739 90.3768
424 1 35.8081 57.5611 88.6881
425 1 35.6478 54.522 88.82
426 1 33.4695 55.9006 87.301
427 3 33.2514 53.1631 88.7366
428 1 39.9594 53.1988 90.2897
429 1 38.1696 55.7036 90.1726
430 3 37.6583 56.1786 87.6382
431 1 40.2548 55.2029 87.9677
432 3 38.1252 53.8062 88.2827
433 1 41.6866 52.5202 87.8969
434 1 43.3691 54.9601 86.7741
435 2 44.5757 55.9609 89.0618
436 1 42.1903 57.2258 88.8463
437 1 44.6907 53.1296 88.6672
438 3 42.3998 54.5927 89.5037
439 2 42.6978 52.3141 90.5522
440 2 46.226 55.6178 87.2169
441 4 47.5605 53.1234 87.9303
442 1 36.6783 59.899 86.8892
443 1 33.9006 58.7449 86.5333
444 1 39.4256 60.9742 86.6946
445 1 39.2193 58.205 88.629
446 1 41.8859 59.6809 87.2832
