# LAMMPS data file written by OVITO Pro 3.7.7
1985 atoms
5 atom types
0.0 250.0 xlo xhi
0.0 90.51 ylo yhi
0.0 181.02 zlo zhi

Atoms  # atomic

1 3 19.4283 41.7415 68.0377
2 1 22.1968 42.46 68.2198
3 4 25.022 43.0354 67.6635
4 1 13.9958 45.3785 67.4028
5 1 12.65 47.9761 66.8425
6 5 15.971 47.092 66.05
7 2 14.6909 47.9226 68.6051
8 1 17.0202 44.4235 66.6719
9 1 19.9954 44.4544 67.584
10 4 19.1272 45.7081 64.9476
11 1 18.675 47.2462 67.2722
12 4 23.0885 45.1232 67.5227
13 4 25.4728 46.8347 65.5898
14 3 21.3455 46.6329 66.2967
15 1 23.5535 47.9943 67.5686
16 1 25.8594 45.8507 68.4066
17 2 27.5969 43.4972 68.197
18 1 28.4517 45.8795 66.9971
19 4 28.2449 47.9912 65.1414
20 1 30.7254 47.8842 67.2091
21 4 31.2659 45.0004 67.9469
22 3 10.3579 48.7625 68.3842
23 2 9.57624 51.2724 67.6748
24 1 15.2075 49.7643 66.5445
25 1 13.1813 51.4788 65.122
26 2 14.4626 52.4016 67.4104
27 1 12.2819 50.7314 67.8242
28 5 16.0682 51.729 64.6142
29 3 18.0411 48.2253 64.6536
30 3 18.0401 49.801 66.414
31 1 17.184 51.9825 67.4385
32 1 20.0738 52.199 66.6066
33 1 18.823 51.0513 64.2092
34 1 20.6069 49.0635 65.5845
35 2 17.0444 48.9546 68.5077
36 1 19.7853 49.9413 68.4932
37 3 22.1519 50.479 67.2037
38 1 24.718 50.8389 67.5426
39 1 23.6848 49.4416 65.0469
40 5 21.9488 51.7236 64.489
41 2 24.7307 52.3979 64.9994
42 2 26.3947 48.5633 67.3329
43 1 26.5204 50.3486 65.2436
44 5 28.797 50.0 66.9784
45 3 29.541 52.2531 68.0734
46 1 27.6945 52.9244 66.2567
47 1 31.715 50.8596 67.49
48 4 34.6102 51.0386 67.9777
49 1 9.82227 57.5905 67.8639
50 1 11.8297 53.6059 66.7621
51 3 13.8714 54.8761 68.0029
52 1 14.5975 54.214 65.4004
53 2 16.2022 55.3848 67.1777
54 1 12.5431 56.5647 66.3558
55 1 15.3707 57.2089 65.4096
56 1 14.8386 57.3431 68.5338
57 2 17.5097 53.8033 65.4599
58 1 19.7882 53.8673 63.8824
59 2 20.9048 54.6221 66.1139
60 1 18.2515 56.3563 64.85
61 1 20.5503 57.0925 66.681
62 1 17.7299 57.8636 67.3979
63 3 20.8803 56.5231 64.0971
64 1 18.6727 54.8558 67.7284
65 1 23.0815 53.2077 66.9727
66 1 22.7908 54.5572 64.1986
67 3 25.7153 53.4356 67.8119
68 2 23.0042 55.9648 66.7592
69 1 23.3849 57.5355 64.619
70 1 25.3741 55.1038 65.6101
71 1 29.9064 54.8138 67.4942
72 1 27.1738 55.9832 67.7914
73 2 28.2914 55.5597 65.2801
74 2 26.6488 57.7285 65.1332
75 4 31.8528 56.6426 66.3576
76 1 32.6737 53.6154 66.991
77 1 13.7977 59.5514 66.4257
78 2 15.9278 59.8086 67.9994
79 1 13.7764 62.2177 67.7892
80 2 12.3533 58.2664 68.4069
81 2 11.4572 60.5159 67.4921
82 1 16.7065 59.947 65.3693
83 2 18.2726 60.7556 67.6427
84 1 19.6233 59.4774 65.2741
85 1 18.8846 62.3912 65.65
86 3 20.8678 61.5364 67.432
87 2 16.2809 62.2179 66.8106
88 2 20.0888 59.2756 68.298
89 1 24.9324 57.9512 67.1768
90 1 22.3407 59.5097 66.6036
91 2 24.6508 60.387 65.3619
92 1 21.6401 61.7551 64.8684
93 2 23.3087 62.6146 66.7202
94 2 26.0072 62.7216 66.8728
95 1 24.5119 60.7744 68.1886
96 1 29.1479 57.9645 66.6711
97 1 27.1819 60.1768 66.8215
98 2 30.1129 60.6344 66.9268
99 1 28.4974 62.6397 68.2472
100 1 31.7284 58.732 68.4709
101 1 18.1802 63.8882 68.1257
102 1 21.0023 64.1759 67.1403
103 4 24.3891 64.911 67.4429
104 2 17.7235 36.9923 73.3709
105 1 20.0872 37.8647 71.2304
106 3 22.4669 36.4314 72.4741
107 1 25.2212 37.2112 72.6783
108 3 27.748 37.7834 71.9321
109 5 10.5855 41.6141 71.9575
110 1 12.1661 39.2648 72.9129
111 2 13.186 41.8834 73.1192
112 2 13.1362 40.8643 70.7008
113 3 14.8543 42.5883 71.4521
114 1 15.1617 39.8606 72.4571
115 1 15.9619 40.7755 69.7622
116 2 17.1603 38.442 71.087
117 1 18.5714 39.6081 73.1158
118 3 18.6689 40.3701 70.3824
119 1 17.4118 42.0551 72.0853
120 2 21.1673 40.1557 72.2252
121 1 21.0566 39.9027 69.2732
122 1 20.2046 42.5887 70.5822
123 2 23.9846 40.2003 68.7808
124 1 23.1442 38.5237 70.8786
125 1 25.1139 40.2126 72.5322
126 3 25.9605 38.8593 70.3994
127 1 23.0731 41.6879 70.9491
128 1 26.0742 41.6062 70.0008
129 3 29.2315 42.5199 69.9056
130 1 28.4796 40.2326 71.144
131 1 30.1415 38.5475 73.1787
132 3 27.2824 42.0503 72.6498
133 1 31.3193 41.3459 71.6981
134 1 9.70782 44.7234 71.8267
135 3 7.30642 45.7515 72.748
136 1 9.49495 47.605 70.7489
137 2 14.831 43.4873 69.1652
138 1 13.6894 44.9741 73.1636
139 1 12.4272 43.6376 70.8135
140 1 13.9563 48.0213 72.559
141 3 11.7876 46.4645 71.7267
142 4 14.1168 46.0066 70.364
143 1 11.4564 45.9743 68.9817
144 4 16.4157 46.048 68.8323
145 5 21.097 47.2487 68.86
146 1 16.4465 44.8095 71.6517
147 3 19.3609 44.4528 72.318
148 1 17.5666 43.1926 69.2857
149 1 16.5691 47.9171 70.9599
150 1 18.9463 45.8259 70.082
151 1 18.45 46.8319 73.0573
152 5 25.0194 43.2064 72.7472
153 1 22.2275 44.1611 72.4893
154 2 24.2618 44.0326 70.1786
155 2 21.6741 44.7471 69.8485
156 1 21.2201 46.7972 71.8989
157 5 23.6145 46.604 70.2255
158 5 24.6582 45.8516 72.8303
159 3 26.2528 46.6689 70.8807
160 2 29.1443 45.1085 69.5396
161 1 26.9906 44.2012 70.8337
162 5 28.8388 46.5019 71.7932
163 1 28.192 47.7926 69.1905
164 1 31.0378 47.0052 70.0167
165 1 29.5627 43.6565 72.2745
166 3 27.2111 45.0998 73.3378
167 1 33.1712 43.5355 72.6236
168 3 31.4384 44.0688 70.4627
169 1 33.6334 45.7784 70.5121
170 2 31.5463 45.8584 72.3981
171 2 35.5728 47.8911 70.7042
172 1 34.474 46.4151 73.3395
173 5 4.68754 52.2762 73.0684
174 3 6.10576 50.8769 71.3205
175 1 6.45203 48.1628 71.7613
176 5 8.55061 50.2321 72.0084
177 1 7.87013 49.6281 69.3026
178 1 7.91657 52.4799 70.0437
179 3 10.2205 51.9087 73.0617
180 1 10.6339 51.0687 70.3494
181 1 7.70531 52.812 73.0804
182 1 12.485 48.5885 70.0182
183 1 11.2697 49.3866 72.793
184 1 14.8827 50.5049 69.4938
185 3 13.2161 50.7613 71.5222
186 3 15.7723 49.9337 72.3712
187 1 12.896 52.9633 69.7647
188 1 15.4058 52.4514 71.9118
189 2 19.3631 48.5484 70.7467
190 1 17.6207 50.8619 70.3601
191 2 19.3532 52.7486 69.1386
192 1 20.301 51.7718 71.4024
193 2 21.0779 49.3341 72.609
194 1 18.4059 49.8656 73.0132
195 5 18.4538 52.7519 73.4379
196 1 23.7411 48.5413 72.5237
197 1 22.389 49.595 69.9877
198 1 25.4059 49.0008 69.9306
199 1 23.0051 51.3517 72.3833
200 1 24.4998 52.5678 70.0431
201 2 21.8925 52.0836 69.1672
202 2 25.9033 50.9585 71.7441
203 1 26.7848 48.2688 72.8193
204 3 28.0412 49.6922 70.9636
205 1 29.5296 52.0181 70.7301
206 1 27.2038 51.2643 68.9993
207 2 30.1497 49.7089 69.3425
208 1 30.4747 49.0981 72.005
209 2 31.0909 51.6122 72.9287
210 1 28.3302 50.9383 73.2997
211 1 33.305 48.5653 68.9381
212 5 33.2581 48.5421 71.8792
213 1 35.9266 49.1304 73.3139
214 3 33.9172 52.4249 72.4023
215 1 32.3889 51.0058 70.5362
216 1 35.3494 50.7454 70.9458
217 2 37.5687 51.3753 72.8851
218 4 5.84926 56.9297 71.2335
219 3 6.45202 54.3496 71.325
220 2 10.2458 53.3945 68.9058
221 1 8.33102 56.1278 72.5079
222 1 8.39564 55.4013 69.5488
223 2 9.98987 53.8199 71.3986
224 2 9.88967 57.2869 70.621
225 1 12.5147 53.1374 72.7532
226 1 11.4014 55.9223 72.3528
227 1 14.0938 55.5125 70.8624
228 1 15.942 53.7507 69.2802
229 1 11.5901 55.7118 69.2382
230 3 12.5469 57.9135 70.83
231 1 16.6024 55.1283 72.5534
232 3 17.8705 53.3952 70.9637
233 1 19.7172 55.085 71.4651
234 5 17.2226 56.2605 69.9519
235 1 18.3458 57.649 72.5564
236 2 19.6924 56.9036 69.362
237 1 21.4107 54.7399 68.8959
238 3 22.4004 53.7271 71.225
239 1 24.4527 55.4364 69.0096
240 2 24.7835 55.2037 71.6238
241 1 22.3759 56.3872 71.2996
242 5 22.3113 57.6457 68.7742
243 2 25.3482 57.5544 72.6751
244 1 27.0041 53.4752 71.6674
245 3 27.8278 53.8601 69.1626
246 1 29.5153 53.7343 73.3713
247 1 29.8261 55.0234 70.6293
248 1 27.1123 56.45 70.7826
249 3 28.8233 56.1964 72.818
250 2 29.4998 57.154 69.1648
251 3 31.4299 53.1619 69.2199
252 3 31.9178 53.6023 71.535
253 1 34.1624 53.3151 69.699
254 1 33.9961 55.3692 71.782
255 2 31.3548 55.6852 72.8956
256 1 31.9514 57.7163 71.3415
257 1 32.3324 55.7227 69.1642
258 2 34.3318 57.5493 69.7294
259 2 36.1409 53.4986 71.9836
260 1 36.5248 56.6996 73.1473
261 2 5.40996 59.138 72.8045
262 1 10.3377 58.7716 72.9052
263 1 7.85225 59.1299 71.2477
264 1 10.6064 59.6814 69.9207
265 1 7.00465 61.7629 72.9144
266 1 9.66373 61.9962 71.4709
267 4 13.2421 58.1376 73.2775
268 1 15.4427 58.1651 71.5201
269 1 13.8676 60.0626 69.7351
270 1 12.429 60.8799 72.2169
271 4 15.5684 60.9746 72.2781
272 3 11.8616 61.9847 69.6938
273 1 17.7871 59.2911 70.0273
274 1 20.5856 58.8101 70.9872
275 2 18.7277 60.9486 72.1591
276 1 16.4468 61.9071 69.6202
277 1 19.7146 61.7844 69.769
278 1 24.6477 58.3239 70.1895
279 1 23.0159 58.8643 72.8136
280 2 22.22 60.2278 69.4812
281 2 21.6107 61.1367 71.9194
282 1 24.3519 61.1299 71.194
283 2 25.9928 62.4521 72.7741
284 3 29.3098 58.0878 71.4629
285 1 27.0764 59.4705 71.6048
286 3 27.0242 58.4351 68.8849
287 1 29.1539 59.8649 69.3834
288 2 26.7194 60.9915 69.5332
289 1 30.6555 60.4428 71.9165
290 1 28.3413 62.6012 71.297
291 2 34.6729 58.3489 72.1289
292 5 31.2398 61.8789 69.3451
293 1 35.2742 60.9644 72.7122
294 1 33.3939 60.223 70.5273
295 3 32.7731 62.3198 72.1073
296 3 32.8559 59.5581 73.3545
297 4 14.0008 63.0595 70.6872
298 1 11.9531 63.9011 72.8647
299 4 14.0077 65.7556 70.8812
300 4 15.3767 64.6176 68.662
301 4 11.289 64.3764 70.2186
302 4 14.9512 63.5836 73.0752
303 1 17.8655 63.8902 71.3123
304 2 19.9926 65.0518 69.7639
305 1 20.8447 63.6846 71.894
306 1 16.3561 66.0576 72.8246
307 1 17.4169 66.5053 69.9315
308 2 19.1764 66.3983 72.1018
309 1 25.8106 63.5114 69.6099
310 5 21.7632 66.3086 72.1813
311 1 22.5462 62.927 69.3782
312 1 23.9189 64.473 71.6307
313 1 22.4962 66.0077 69.3283
314 1 25.4165 66.6408 69.8994
315 1 24.8092 67.1085 72.7243
316 3 26.6345 64.9958 72.0382
317 4 28.2904 65.3225 69.9009
318 1 27.5641 67.6667 71.782
319 4 31.0493 64.2548 70.8415
320 1 29.505 65.7514 72.9354
321 3 15.3584 68.0594 71.371
322 1 17.9535 68.7869 71.9276
323 1 20.2443 67.8296 70.0723
324 1 20.9007 68.9126 72.8561
325 3 23.0194 68.257 70.9864
326 3 25.3324 69.293 71.4197
327 2 10.9032 38.0973 75.4955
328 3 14.4545 35.4403 77.4442
329 1 13.5902 37.5274 75.8853
330 4 15.7939 35.7327 75.1203
331 1 18.5054 35.7877 76.0111
332 1 16.2778 37.5006 77.6245
333 2 19.0177 37.4437 78.1519
334 1 20.437 37.2418 74.1007
335 2 21.1042 34.8806 75.681
336 5 26.0343 35.3338 76.5075
337 1 23.5189 36.1788 75.0314
338 1 21.4611 37.3736 76.9266
339 1 24.4037 37.2904 77.8107
340 2 25.5945 34.788 73.8905
341 4 23.1032 34.693 77.7467
342 3 28.6955 35.6659 76.9341
343 1 27.7048 36.5297 74.3593
344 1 27.4163 38.1469 76.8608
345 3 29.881 37.4341 75.6781
346 1 6.25584 42.4425 76.28
347 1 8.18668 42.5666 73.7784
348 2 9.81421 38.3997 77.9083
349 3 8.09819 40.47 75.9783
350 2 8.94413 42.937 76.3687
351 1 9.57069 41.0675 78.1997
352 1 10.5159 40.8051 74.86
353 3 15.4186 43.1433 73.6972
354 2 13.7268 40.0299 74.7545
355 1 12.2372 39.9427 77.0309
356 3 14.985 39.6823 76.7238
357 2 15.9665 38.3472 74.7121
358 5 11.4249 42.9033 77.0025
359 1 13.8799 42.4604 75.731
360 1 18.423 38.75 75.8721
361 3 20.6847 39.9303 75.0301
362 1 20.3341 39.9497 77.9414
363 1 17.1447 40.4379 77.9021
364 2 16.3793 42.8605 77.0697
365 1 16.4153 41.0344 74.8728
366 2 18.6923 41.6567 76.034
367 1 20.0278 42.2087 73.6294
368 1 21.1109 42.509 76.4216
369 5 22.847 38.7643 73.8333
370 4 22.935 39.9086 76.4574
371 4 25.3014 40.1238 77.3382
372 2 25.1705 38.4193 75.2155
373 1 22.8788 41.6456 74.1234
374 5 25.5622 41.7017 75.0302
375 5 23.9054 42.7567 77.152
376 3 29.4509 41.1955 73.5206
377 2 27.5387 40.8678 76.3974
378 1 29.8794 40.0597 75.875
379 1 27.4457 39.5124 74.0543
380 1 28.1702 43.076 75.0065
381 2 26.6819 42.8435 77.4287
382 1 29.9038 42.5654 77.6089
383 1 32.2288 38.5049 76.5042
384 2 34.2816 39.9945 77.5411
385 3 32.202 41.181 76.7248
386 3 31.9991 40.2095 74.186
387 5 34.0882 41.5636 75.0219
388 1 31.2442 42.7526 74.7849
389 1 35.2666 42.5098 77.7585
390 5 4.82043 45.3178 77.1448
391 1 8.76146 47.8867 73.653
392 1 9.00667 45.2032 74.8398
393 1 7.63197 45.1138 77.3439
394 3 6.36837 44.6053 74.8058
395 2 10.5088 45.3387 77.2353
396 1 6.38221 47.2632 75.304
397 2 6.66816 47.5094 78.1325
398 1 9.20598 47.7682 76.7319
399 1 11.2885 43.5236 74.1044
400 1 13.6686 44.4688 78.1607
401 3 12.7262 45.012 75.7873
402 1 15.4382 45.1027 75.8413
403 1 11.4541 46.7391 74.3494
404 2 13.9832 47.4084 75.2136
405 1 12.5027 47.1493 77.5272
406 1 15.6308 47.3559 77.6957
407 2 15.9104 46.5083 73.641
408 1 18.7398 44.4252 77.3724
409 1 17.7635 43.9668 74.5065
410 1 20.4885 45.1786 74.9378
411 2 17.8725 46.4758 75.8053
412 1 20.5362 46.9184 77.6041
413 2 21.9641 44.5128 77.8841
414 3 23.0159 44.2702 75.1084
415 1 25.6134 44.6945 75.4936
416 2 22.5327 46.8048 74.3408
417 1 23.4576 46.4543 76.9033
418 5 25.0896 47.6577 74.9728
419 2 26.2142 46.8918 77.2421
420 1 28.2547 45.1649 77.2978
421 1 29.7991 45.5322 74.4808
422 3 29.121 48.0311 73.8842
423 3 27.5049 46.7564 75.1655
424 2 30.9779 44.9336 76.8134
425 5 29.8422 47.675 76.3264
426 3 32.4633 45.0723 74.6679
427 3 32.9372 43.528 76.8657
428 5 35.6896 45.3507 78.051
429 1 34.985 44.2673 75.2694
430 5 31.9419 47.6518 74.3226
431 1 33.2823 46.4625 76.7261
432 1 36.6234 46.8857 75.5903
433 4 37.599 43.9483 76.5864
434 4 38.4289 46.4294 77.8652
435 2 4.42324 48.5344 73.8773
436 1 4.40972 48.6882 77.1659
437 2 4.13292 50.7707 75.298
438 1 3.67201 51.8095 77.7657
439 1 5.98187 52.799 75.7728
440 1 6.54483 50.1935 74.0385
441 2 9.21674 50.303 74.7679
442 1 7.05008 50.0921 76.8828
443 2 8.60423 52.437 75.8864
444 1 10.0388 50.6196 77.4307
445 4 11.548 51.9796 75.3467
446 4 11.6539 49.2247 75.6407
447 4 13.9613 49.6537 76.8686
448 1 13.8543 50.6152 74.1513
449 4 14.3915 52.326 76.6937
450 2 16.4652 51.3647 74.4513
451 2 18.2256 48.46 77.1711
452 1 16.4102 48.7465 75.0009
453 3 20.3781 49.6711 77.5472
454 1 20.0528 48.2663 74.9974
455 1 16.5576 50.4862 77.7198
456 1 18.8537 50.8942 75.8411
457 3 20.813 51.2044 74.1803
458 1 22.6426 49.396 75.5164
459 1 25.1749 49.3846 77.3378
460 3 22.9593 51.9649 75.0267
461 1 22.0496 51.769 77.4856
462 1 25.3169 50.5482 74.3205
463 1 25.1729 52.2511 76.6978
464 1 27.7226 49.519 75.7588
465 2 27.2723 51.0254 78.0184
466 2 29.6806 50.1619 77.6122
467 2 30.5048 49.7678 74.7534
468 1 30.184 52.0705 75.7334
469 2 27.1317 52.9201 74.7462
470 1 35.5659 48.3376 78.0487
471 2 34.395 48.4668 75.4096
472 1 32.2032 49.329 76.9703
473 3 34.5533 50.5776 76.7824
474 1 33.0926 50.4398 74.132
475 2 32.8195 52.1819 76.4407
476 1 35.51 51.9559 74.6544
477 1 38.6468 48.8052 74.5382
478 1 38.8119 49.2566 77.5686
479 3 36.6025 49.6993 75.8768
480 5 36.7328 50.9521 78.1554
481 1 38.5501 51.5901 75.5477
482 3 39.0327 52.2107 78.1086
483 1 4.9562 55.0652 73.4886
484 1 3.33361 54.2487 75.9797
485 3 5.63843 55.5636 76.1393
486 1 3.96845 57.4886 75.0407
487 1 3.86926 56.6274 77.9486
488 4 10.73 53.4615 77.5972
489 3 6.41022 57.179 74.0587
490 1 9.98485 54.3526 74.4917
491 3 7.32678 54.8833 74.5968
492 1 8.20248 55.0309 77.0264
493 2 8.63875 57.0076 75.1965
494 4 9.20942 57.7031 78.0037
495 5 11.1311 57.0318 75.1818
496 4 12.6774 54.5078 75.7794
497 4 15.0668 53.4896 74.5033
498 4 13.9528 55.706 73.7754
499 1 13.7422 57.3631 76.2449
500 4 11.4923 56.1776 77.8228
501 4 15.8943 55.3906 76.2073
502 4 16.1635 57.4028 74.4762
503 4 17.2075 53.1368 76.3128
504 2 16.2689 57.8281 77.1904
505 3 20.7949 56.7715 73.6417
506 2 20.1986 53.2814 76.1174
507 1 18.6613 55.209 77.7437
508 1 18.6834 55.2988 74.6536
509 1 18.9078 57.8485 76.1791
510 2 20.874 55.7539 76.1654
511 1 24.6218 53.4211 73.5875
512 1 21.3279 53.8531 73.6896
513 1 23.0921 54.4082 76.1183
514 1 25.9898 55.0566 76.8861
515 4 23.3089 56.052 73.873
516 2 24.6255 57.4183 75.3583
517 1 23.623 56.672 77.9673
518 4 28.1606 53.2044 77.1134
519 1 26.4926 55.6125 73.9691
520 1 28.9719 55.6782 75.5083
521 3 28.3484 55.6727 78.1502
522 1 31.0286 54.3839 77.4071
523 2 30.3558 57.0932 77.3025
524 1 26.9964 57.7961 76.5416
525 1 32.4827 53.6575 74.2263
526 1 33.9183 54.7803 76.5508
527 2 35.1328 54.5784 74.1822
528 3 31.6035 56.0161 75.4309
529 1 33.6479 56.9477 74.2316
530 4 32.7067 56.6991 78.2171
531 1 37.8326 54.1825 74.1482
532 1 36.4972 56.563 76.2558
533 1 39.4896 54.5083 76.6876
534 1 36.6525 53.5668 76.8995
535 2 38.8334 56.8027 74.8209
536 3 39.1706 57.0517 77.397
537 1 5.21361 60.3325 75.298
538 1 5.24979 61.6447 77.9553
539 2 3.45594 59.3768 77.3251
540 1 6.50154 57.9739 76.6916
541 1 7.83751 59.389 74.2882
542 2 10.1487 61.4241 74.0874
543 1 9.77869 59.95 76.3438
544 2 7.51119 60.1366 77.8981
545 3 9.87088 62.6105 77.4541
546 1 7.68683 62.1521 75.929
547 2 13.1563 62.1038 74.5107
548 4 12.1621 59.6952 75.066
549 2 11.8689 58.7898 77.7872
550 2 14.4673 59.7052 77.5238
551 4 14.7012 59.8639 74.7913
552 1 12.379 61.6153 77.0876
553 1 15.2966 62.2315 76.2962
554 4 17.3706 62.5837 73.7742
555 1 17.423 59.9604 74.5645
556 2 20.0543 59.4555 78.2124
557 1 20.344 59.4462 73.9125
558 1 17.2486 60.2724 77.6485
559 2 19.4507 60.59 76.2018
560 1 20.4439 62.2864 74.456
561 1 21.9328 58.1698 76.031
562 1 24.536 59.5882 77.0402
563 1 25.4727 59.877 74.172
564 2 22.878 60.3879 75.0065
565 1 23.3069 62.4856 73.6642
566 1 21.7672 61.3343 77.1709
567 1 25.4709 62.3624 75.8764
568 1 30.4837 58.0399 73.9636
569 1 28.2822 60.8281 73.9048
570 2 27.7093 58.1178 73.9349
571 1 29.4717 59.3473 76.3774
572 3 27.1177 60.4783 76.4681
573 1 29.2428 62.3777 76.2386
574 3 30.9309 60.6958 74.6449
575 1 32.4632 58.9819 76.1197
576 2 31.6264 61.3875 77.1213
577 1 33.2712 61.8742 74.7164
578 3 34.1482 61.3227 77.0614
579 1 35.2543 59.2448 75.1892
580 4 34.5274 58.3524 77.9955
581 2 37.436 59.3183 73.5613
582 1 38.1789 59.2637 76.2456
583 2 36.2373 60.1911 77.7737
584 1 36.4712 61.912 75.5319
585 2 38.386 61.6476 78.2041
586 1 9.03935 63.9362 73.6703
587 1 8.78094 64.9128 76.428
588 2 6.47866 64.209 77.8033
589 3 11.0519 63.3347 75.437
590 1 10.1198 67.6215 76.6567
591 2 11.0286 65.8147 74.6599
592 1 11.5119 65.1561 77.4364
593 1 13.5183 66.9377 73.4918
594 1 13.617 64.6531 75.4453
595 3 13.9489 66.3061 77.8999
596 3 12.7215 67.2322 76.0232
597 1 15.5815 66.9919 75.8521
598 2 13.8182 63.8228 78.0378
599 2 17.9184 67.4275 74.4163
600 1 18.1061 62.9807 76.5938
601 1 16.2573 64.9591 78.1212
602 2 16.4209 64.5994 75.2136
603 1 20.6992 64.2676 76.7062
604 1 19.02 64.8951 74.1881
605 2 18.3684 65.8745 76.7024
606 1 20.415 67.275 75.2996
607 3 23.1277 63.413 76.3137
608 3 21.8888 64.7787 74.3418
609 1 24.6809 64.9535 74.5943
610 3 22.792 67.1029 74.3486
611 3 24.9018 67.5809 75.4763
612 5 23.0587 66.0724 76.7429
613 1 30.4731 63.0267 73.4894
614 1 27.5462 63.907 74.3501
615 3 27.4163 63.8095 77.3436
616 3 27.051 66.532 74.181
617 1 29.1619 65.6858 76.0987
618 3 26.3166 65.7157 76.4696
619 1 32.7972 64.8379 73.4581
620 3 35.1402 63.5074 73.6123
621 1 31.6512 64.0134 76.1148
622 1 34.5757 64.3686 76.2019
623 2 31.586 66.6899 75.2084
624 1 32.497 66.3141 77.9272
625 3 14.0682 69.2835 76.2379
626 1 15.6986 69.1619 73.926
627 3 17.776 68.231 76.8301
628 1 20.0074 69.4781 77.3778
629 1 18.6558 69.976 74.6947
630 1 16.4702 70.5531 76.6383
631 2 19.1846 71.9761 76.7176
632 1 23.6626 69.588 73.8834
633 3 22.5798 68.653 76.3025
634 1 24.905 70.0078 76.7117
635 2 21.3442 70.5107 75.1231
636 1 22.3382 71.3471 77.5592
637 4 29.4114 68.3283 74.2709
638 2 26.3937 69.1354 73.9085
639 1 30.0738 68.1696 77.6935
640 1 27.3874 68.2046 76.2775
641 4 9.09789 36.9556 82.6637
642 2 10.8295 37.4251 80.9064
643 1 12.1432 36.8883 78.4874
644 3 12.4466 35.6176 81.1848
645 1 14.4935 35.1592 82.879
646 1 13.4485 38.1364 81.7244
647 1 14.8448 36.1688 79.9653
648 3 15.9231 37.4432 82.1568
649 1 17.1535 34.7257 78.4819
650 2 16.6553 34.3234 81.3169
651 1 19.4742 34.5503 81.3703
652 5 20.1534 34.979 78.4503
653 1 17.8481 36.8336 80.4477
654 4 20.0421 37.1888 82.7602
655 1 21.0661 37.3289 80.0776
656 3 25.0801 34.6381 79.9669
657 1 22.3906 34.6362 80.6315
658 3 22.3739 36.4975 82.5945
659 1 24.3563 37.0453 80.8633
660 1 27.1514 36.2414 79.1476
661 1 26.8518 35.7988 82.0511
662 2 29.6912 36.0322 80.9016
663 1 29.9365 37.6535 78.5529
664 4 4.78895 42.8337 78.9715
665 1 8.70134 39.1348 80.4531
666 1 10.8203 39.5443 82.8736
667 2 7.32533 42.7775 78.6486
668 1 6.79052 40.2227 78.4001
669 1 7.31959 41.8696 81.1798
670 3 9.98649 41.4748 80.8937
671 3 14.0321 38.6136 78.7277
672 1 14.3144 41.4379 78.5946
673 1 11.7712 39.7018 79.8843
674 1 15.9073 39.42 80.3535
675 5 12.0343 42.5832 79.6973
676 1 13.5197 41.2246 81.9498
677 2 16.2186 42.2554 80.1451
678 3 18.5224 39.2732 79.7801
679 2 18.181 38.7991 82.3439
680 1 18.8925 42.2569 79.3108
681 1 16.2911 42.8049 82.8582
682 3 17.8799 41.0914 81.4593
683 2 20.0886 42.7394 81.8459
684 1 20.4319 40.1003 81.2772
685 3 22.7306 38.8733 82.1224
686 2 26.0145 38.7765 79.5277
687 1 25.1224 41.7374 79.6344
688 1 23.0803 39.4977 79.4695
689 1 25.4429 39.7185 82.0141
690 5 21.8064 42.1576 79.2556
691 1 22.9401 41.6024 81.8849
692 2 25.7308 42.5358 82.1496
693 1 28.2871 38.3858 81.1518
694 1 28.0862 40.3703 78.9077
695 3 27.7454 40.9556 81.6635
696 3 30.7633 40.1215 78.3757
697 1 30.3348 40.9245 80.8607
698 1 29.1269 43.062 82.6156
699 1 31.2119 38.3006 82.072
700 1 32.7236 38.8133 79.5612
701 2 34.3295 38.5574 81.8948
702 1 32.6711 41.9326 79.2184
703 3 32.9259 40.6935 81.6996
704 1 35.2272 40.5596 80.168
705 4 37.5724 42.3874 79.6407
706 2 3.91583 44.408 81.2276
707 1 6.18495 44.0537 82.9055
708 1 3.91657 46.7316 79.5622
709 1 4.75426 46.749 82.5391
710 1 9.52321 43.8225 79.3947
711 1 11.2335 43.5161 82.2661
712 3 8.63729 44.2549 81.805
713 1 6.39427 45.0425 80.0564
714 2 7.4708 46.5133 82.085
715 1 8.87915 46.7536 79.7322
716 1 14.3028 44.0419 81.0291
717 1 11.68 45.6914 80.1244
718 2 14.2405 46.7587 80.0834
719 1 13.207 46.0988 82.9254
720 5 16.347 44.6881 79.005
721 2 17.8532 44.1011 81.0749
722 1 20.3313 44.8441 80.0612
723 1 18.0855 46.8598 79.4228
724 3 18.9016 46.2716 81.8974
725 1 16.2428 46.2726 81.9582
726 1 20.737 47.909 80.8439
727 2 21.3065 45.057 82.5863
728 1 23.3116 44.1903 80.5815
729 5 25.3305 44.7578 78.5926
730 4 25.9367 45.0382 81.4765
731 2 22.5498 46.4355 79.4871
732 1 23.3638 46.889 82.1034
733 1 25.0733 47.452 79.6581
734 1 27.6833 43.1549 79.9472
735 4 30.3752 44.0423 80.029
736 4 28.0339 46.0068 80.0801
737 1 30.642 46.7661 78.7319
738 4 31.1341 46.3473 81.4012
739 4 26.3196 47.5322 82.181
740 4 28.5744 45.9597 82.6876
741 1 32.4475 43.3668 82.0425
742 1 35.2056 43.5723 80.7605
743 1 33.0113 44.9032 79.2728
744 2 33.1819 47.629 79.2302
745 2 33.4166 46.0041 82.3613
746 4 35.2801 46.6072 80.4581
747 5 37.6648 43.3704 82.6923
748 1 38.4717 46.3468 82.8402
749 4 37.7371 45.1345 80.2677
750 4 37.7686 48.0639 80.2591
751 2 5.82842 50.9327 79.137
752 1 3.41824 49.7017 79.8186
753 2 2.65762 48.4304 82.1124
754 1 6.12911 48.502 80.54
755 4 4.53219 50.7419 82.1918
756 4 1.91486 51.9336 80.8813
757 2 4.61602 52.759 80.5883
758 2 8.26184 49.4663 79.2212
759 3 10.7234 48.4847 78.9181
760 1 8.09123 52.4665 78.8131
761 3 8.8527 48.6391 81.5841
762 1 7.31134 51.1744 81.4801
763 1 10.3364 50.7708 80.4018
764 1 11.5653 48.3217 81.4337
765 4 12.6065 51.6106 78.5715
766 4 13.4093 49.2724 79.5283
767 1 14.4422 48.815 82.5048
768 2 12.2954 50.7847 82.5515
769 4 14.4722 51.482 81.0186
770 4 16.0938 48.9863 80.1765
771 4 15.8061 52.8582 79.0842
772 1 19.041 52.3 78.6066
773 4 18.8213 49.633 79.6671
774 1 17.8751 48.8703 82.5241
775 3 20.3852 50.0713 82.4094
776 5 17.4117 51.5102 81.1305
777 1 19.9821 52.8678 81.5213
778 2 21.1225 50.933 79.9791
779 1 22.6139 48.9918 78.6731
780 2 24.2422 51.3015 79.1327
781 1 23.2034 49.8694 81.4843
782 1 22.9149 52.8767 80.8913
783 4 25.4344 52.1799 82.0168
784 1 27.9702 48.3851 78.6163
785 5 26.1948 50.0338 80.3635
786 4 28.8577 48.5485 81.439
787 1 28.8394 51.215 80.273
788 4 31.0897 49.2438 79.9332
789 1 31.1436 50.6732 82.5469
790 1 34.4112 52.5374 78.69
791 1 33.3628 48.7711 81.7076
792 1 31.4204 51.8186 78.8035
793 3 33.6457 50.0461 79.1348
794 1 35.7891 50.1563 80.7862
795 2 33.0236 51.6878 80.972
796 2 34.2788 51.1442 82.9415
797 4 40.2306 48.4843 81.7269
798 2 37.844 49.2165 82.8573
799 1 38.9591 50.8577 80.49
800 1 36.9889 51.8533 82.8534
801 1 5.57734 54.0969 78.4613
802 1 2.6232 54.2478 79.2838
803 2 1.53439 55.8309 81.2961
804 1 2.75277 53.9346 82.8559
805 1 4.47595 55.9003 81.0809
806 2 9.3775 53.0148 81.4064
807 1 7.06235 54.356 81.2424
808 1 9.61784 55.122 79.7027
809 1 9.64744 55.657 82.5688
810 5 7.11074 57.0824 82.4731
811 4 6.88791 56.5673 79.3267
812 4 13.5224 54.4419 78.4135
813 1 11.9659 53.1971 80.9066
814 1 14.0651 57.411 79.1592
815 1 14.4864 54.6273 81.2488
816 3 12.3006 55.1551 82.8652
817 2 12.1847 55.8559 80.4639
818 4 16.1029 55.5425 78.8481
819 1 18.1225 57.8278 79.1862
820 2 20.7845 57.0509 78.3451
821 2 17.6077 54.0944 80.545
822 2 18.7337 54.849 82.9276
823 1 19.6274 55.8561 80.6453
824 1 16.6478 56.5429 81.5679
825 1 21.3805 54.3618 78.7862
826 2 24.0438 53.9047 78.6101
827 2 26.1668 56.8298 78.9957
828 2 21.6889 55.0159 82.1321
829 1 24.7118 55.3731 80.803
830 3 22.3647 56.4479 80.3037
831 1 23.1415 57.3944 82.9511
832 1 26.5176 53.2264 79.5288
833 4 27.3302 53.6513 82.9464
834 2 29.3303 53.7153 79.3865
835 1 27.7787 55.6446 80.8715
836 1 30.1432 53.4902 81.9314
837 1 30.5161 56.1603 79.9554
838 1 35.2062 55.5537 79.1877
839 1 32.6166 54.2756 80.2606
840 2 34.9931 53.3336 81.4717
841 2 32.7033 57.8537 80.7191
842 4 31.5794 56.0061 82.7969
843 1 34.3143 56.149 81.9917
844 1 37.1422 53.1278 79.9642
845 2 38.8322 53.5622 82.0897
846 1 40.0071 54.1181 79.7647
847 3 37.8282 55.3284 78.5982
848 1 37.2993 55.774 81.3753
849 1 37.118 57.8916 79.0056
850 3 39.5109 56.7293 79.8555
851 1 40.2181 55.9399 82.3872
852 1 2.53547 58.1269 80.2024
853 5 5.25345 58.9287 79.1777
854 1 4.82579 58.8655 82.0594
855 1 3.37554 61.0104 80.1934
856 3 6.08113 61.0152 80.7303
857 4 2.21105 59.8462 82.8136
858 1 4.62937 61.9937 82.7878
859 1 10.6234 57.9706 80.6732
860 1 10.0459 60.5608 79.2456
861 1 7.85999 62.4707 79.3627
862 3 9.37444 58.6946 82.9137
863 1 7.78439 59.0161 80.4957
864 2 7.29797 62.7242 82.1899
865 3 9.04287 60.9236 81.7003
866 1 13.3431 57.9378 81.9741
867 2 14.6777 61.7272 78.9672
868 5 11.4587 60.359 82.4996
869 1 15.9383 59.5183 80.2699
870 1 12.8535 60.1381 79.9191
871 1 14.3876 61.2638 82.2524
872 3 19.6004 62.0507 78.5084
873 3 18.3663 58.4862 81.9312
874 1 20.8845 58.5496 80.7549
875 2 18.7499 60.2799 80.1681
876 2 17.4718 60.776 82.2666
877 1 17.0936 62.4615 79.6096
878 1 19.4581 62.6808 81.1992
879 1 20.2328 60.3964 82.9769
880 2 22.4356 59.0754 78.6687
881 1 23.7985 61.4417 79.2198
882 1 24.3899 58.4186 80.3772
883 3 21.2367 61.0586 80.0018
884 1 22.9731 60.4672 81.965
885 1 26.0606 61.1565 81.0981
886 3 26.2066 61.9089 78.3715
887 1 28.6647 61.0689 78.6992
888 2 26.3627 59.5033 78.906
889 1 28.5763 58.1644 79.1375
890 5 27.11 58.5221 81.515
891 1 29.0956 61.0264 81.5617
892 1 29.9475 58.2334 82.0015
893 3 31.0213 61.8121 79.4787
894 1 31.2935 59.2464 78.9134
895 2 35.1875 58.451 80.8804
896 2 31.7143 60.3109 81.3722
897 1 33.8409 60.6407 79.6163
898 1 34.6019 60.9318 82.5706
899 3 32.7135 62.5244 81.2388
900 1 39.584 59.3357 78.9676
901 1 38.5175 58.451 81.742
902 2 39.4576 61.1752 81.0641
903 1 36.796 60.622 80.4042
904 1 5.16735 63.614 80.2779
905 1 5.66954 64.8145 82.9983
906 2 7.63608 66.5261 78.304
907 2 9.63576 63.1891 81.2584
908 3 9.53071 64.5438 79.0625
909 2 10.4194 65.4052 81.6857
910 1 7.65614 65.2483 80.7603
911 1 9.97041 67.1286 79.5802
912 5 8.81546 67.6703 82.239
913 1 11.7147 63.0209 79.5655
914 1 12.1889 63.3313 82.3508
915 1 14.6882 63.8586 80.6874
916 1 12.6232 65.9162 80.1342
917 3 13.8238 65.641 82.6145
918 1 11.7945 67.6289 82.4161
919 4 15.5289 66.5694 80.7336
920 1 16.7438 63.2054 82.7913
921 3 18.9919 64.4569 78.8539
922 1 18.0396 67.1645 79.3793
923 1 20.6793 66.7307 78.273
924 2 17.5795 64.9196 80.914
925 2 19.0137 67.5681 82.4842
926 1 20.1827 65.6924 80.9998
927 1 24.8325 64.2532 78.2901
928 1 25.1724 67.4298 78.31
929 1 21.8326 63.6846 79.3839
930 2 24.3584 63.2289 81.1498
931 2 21.9082 62.8954 82.1665
932 1 22.8901 65.3173 81.9774
933 2 23.0568 66.1226 79.4706
934 3 24.2058 67.6554 81.1515
935 1 25.685 65.5434 80.8391
936 2 29.9853 64.0411 78.3605
937 1 27.8598 66.2172 78.7413
938 1 27.6622 63.4946 80.0131
939 3 26.7286 63.4 82.5119
940 1 28.5066 65.8436 81.8712
941 3 30.4083 66.099 79.6948
942 1 30.4388 63.7345 81.0957
943 1 30.8352 67.6386 82.1467
944 1 35.9753 62.8541 78.4407
945 1 32.9578 63.3901 78.7054
946 2 35.0141 65.2681 79.1891
947 2 34.9402 63.1713 80.9512
948 1 32.7452 65.4427 80.9291
949 2 33.5138 67.2943 82.738
950 1 35.6138 65.6646 81.9137
951 1 34.3098 67.7745 80.0568
952 1 37.5797 63.3782 81.0514
953 2 10.813 69.5143 80.6194
954 1 12.4351 68.5987 78.4027
955 1 15.5048 68.3825 78.4622
956 2 13.8349 68.4237 80.6971
957 1 12.9133 70.568 82.0322
958 1 15.0359 70.8807 79.9225
959 2 17.8149 69.9413 79.0769
960 1 16.9447 69.1168 81.539
961 3 19.9835 68.9344 79.9649
962 1 17.1901 72.5264 78.6537
963 1 19.6546 70.4318 82.1507
964 5 17.3836 72.0882 81.5063
965 1 19.9151 71.7596 79.5014
966 2 21.4183 72.699 82.3251
967 1 24.9562 72.1142 78.9036
968 5 22.6278 68.7077 78.8778
969 1 21.7477 68.2119 81.7115
970 2 24.9182 69.6713 79.789
971 1 24.7986 69.8417 82.512
972 1 22.593 70.9494 80.5871
973 2 24.4503 72.6141 81.7003
974 2 26.6334 68.117 80.7543
975 1 27.5089 69.7901 78.7418
976 3 29.0263 68.0679 80.245
977 1 28.1806 69.2598 82.6505
978 1 26.9142 71.4372 81.0968
979 2 28.9164 72.0063 82.959
980 1 30.0675 70.4329 80.5983
981 3 31.7114 68.2738 79.7584
982 1 32.8672 69.7667 81.7011
983 2 9.56873 37.9495 85.0195
984 3 13.4515 35.1694 85.3896
985 1 15.993 34.2913 85.5022
986 1 11.9876 36.9366 83.9856
987 3 14.8217 36.2976 87.1124
988 1 12.0588 36.8059 87.0221
989 1 15.1524 37.3982 84.719
990 1 17.5155 35.9037 83.4545
991 5 18.5341 33.298 84.0685
992 3 19.4089 35.6138 85.2207
993 1 19.4366 36.8983 87.7322
994 3 17.2202 36.457 86.2652
995 1 18.5614 33.9469 87.0274
996 1 24.3072 34.6629 83.0357
997 1 21.3482 34.298 83.7379
998 1 24.3774 37.6916 83.9436
999 1 21.4839 34.3792 86.7223
1000 2 24.6144 34.5421 87.6063
1001 2 23.7688 35.6058 85.5868
1002 1 21.5725 37.0333 85.2358
1003 1 25.5703 37.4654 87.6029
1004 2 27.0458 38.1092 83.5467
1005 1 26.4858 35.8238 85.1136
1006 5 29.2348 36.4807 83.6498
1007 1 28.4909 37.7012 86.5125
1008 2 32.9974 36.807 83.3919
1009 1 31.2858 37.4669 85.4178