ITEM: TIMESTEP
742
ITEM: NUMBER OF ATOMS
1499
ITEM: BOX BOUNDS ss ss ss
5.8452971378343840e+01 9.6874318077243544e+01
4.7782089450000001e+01 8.2895410549999994e+01
6.0721310549239043e+01 9.7504555486992516e+01
ITEM: ATOMS id type x y z fx fy fz
1 1 67.7905 56.1941 65.4035 0.807999 -0.574666 0.0780245
2 2 70.4698 56.1484 64.273 0.113707 -0.739112 0.44822
3 1 73.5168 57.72 65.9353 -0.000722471 1.1073e-05 9.63536e-06
4 1 73.2605 55.8143 63.71 0.320997 0.311025 -0.223806
5 2 76.5319 56.3162 64.5429 0.895104 0.178716 -1.55182
6 2 63.6609 60.6665 65.3193 0.473918 -0.357565 0.034193
7 1 65.922 58.9005 64.4505 -0.283647 -0.521616 -0.253968
8 2 67.098 60.4378 62.631 1.26078 -0.446018 -0.430636
9 1 65.5318 62.0153 63.797 -0.459799 0.0900195 0.090544
10 1 68.8644 58.4243 64.0949 -0.181752 0.574763 -0.13408
11 1 68.9896 61.3806 65.4161 -0.000661622 -0.000129993 9.19305e-07
12 5 71.4736 58.1983 63.0311 1.35708 0.061489 -0.346582
13 1 69.9379 60.6761 62.6444 -1.28741 -0.530654 -1.0427
14 1 72.6601 60.8263 61.8716 0.852311 -0.0966331 -0.499401
15 2 73.6708 60.5501 64.199 -0.000688413 -0.000304204 -0.000355129
16 5 71.4324 59.6828 65.3767 0.000231597 -2.71752e-05 -0.00015569
17 1 73.4446 63.1976 64.9006 -0.000382929 -0.000161627 -0.000266706
18 2 71.4182 61.9384 64.2079 -0.000290244 -0.000509362 0.000363477
19 1 74.5685 58.3529 63.1024 0.497186 -0.163955 0.551019
20 1 75.8357 60.6857 61.9432 0.203201 0.439035 0.615966
21 3 77.4776 58.8992 63.9971 -0.20944 0.503569 -0.338445
22 1 76.1042 61.6216 64.7011 0.000452702 9.36199e-05 -7.75617e-05
23 1 78.8348 61.2894 63.8999 0.398485 0.429888 0.428918
24 2 81.7346 60.8978 65.6658 -0.0152669 0.433228 -0.350915
25 3 63.5303 66.2976 64.1793 -0.619689 -0.579904 -1.56172
26 1 64.0506 63.5902 65.6759 -1.14532 0.61359 0.747217
27 1 68.1638 63.1457 63.1015 -0.283495 -0.172268 0.162416
28 2 65.3512 64.6987 63.8682 0.874972 0.440586 -0.453753
29 4 66.185 65.3488 61.6676 0.691346 -0.135857 -0.214881
30 1 65.3588 67.5958 63.1384 0.461445 1.46243 0.0664728
31 1 67.7895 65.7107 64.5376 -0.000450381 -8.27684e-05 7.0566e-05
32 2 69.8417 66.7347 65.7589 0.000161148 7.47121e-05 0.000367263
33 1 70.9174 63.4221 61.9697 1.16632 0.704716 -0.302846
34 2 68.9599 65.611 62.2422 -1.31253 -0.855177 0.672983
35 1 71.1307 67.4167 63.606 0.000254585 8.23885e-05 -0.000208272
36 2 72.943 65.3979 63.2777 -2.98577e-05 0.00016104 -2.23817e-05
37 1 70.8707 66.2759 61.0389 1.47583 0.735171 -1.38681
38 1 70.5825 64.3938 64.8225 -0.000128674 0.000804432 -0.000116754
39 2 74.447 67.3006 64.3116 0.000175744 0.000331827 0.000390034
40 3 73.2657 65.6525 60.7254 1.11902 -0.249604 0.523268
41 1 74.3355 63.3216 62.006 0.10523 0.235796 0.705742
42 2 77.3934 63.6155 63.1638 -0.252452 -0.0757944 -0.280941
43 1 75.8648 66.1467 62.348 -0.146893 -0.524534 -0.126141
44 1 79.1297 66.1432 63.1531 0.22686 -0.369087 -0.649045
45 1 75.6585 64.8415 65.0586 0.000131432 0.000129457 0.000256869
46 3 78.3217 64.709 65.1542 -0.000260067 -2.82139e-05 -0.00023869
47 1 77.1339 67.3282 64.9531 0.000227907 0.000272113 0.00079076
48 1 80.6875 63.7097 64.8419 0.095828 -0.208811 0.268788
49 1 82.65 65.9046 64.779 0.564839 0.233534 1.13044
50 5 62.3288 68.6065 64.6323 1.60349 -0.0173743 -1.95999
51 2 64.1252 70.6239 64.2532 0.00483763 -0.277125 -0.199536
52 1 68.2188 68.1186 62.8139 -1.32599 -0.757193 1.84431
53 3 63.8731 68.507 66.8579 0.000332617 -0.000314603 0.000237882
54 1 66.7329 70.5578 63.7487 -0.462297 -0.508897 0.50032
55 1 67.8854 68.4718 65.9885 0.00057019 0.000291381 0.000598498
56 1 68.8406 70.9648 62.0098 1.2444 0.677931 -1.07552
57 3 69.6903 68.641 61.0913 2.16708 0.550179 -1.60206
58 3 71.5831 70.1584 62.3689 -0.0552016 -0.34238 -0.247195
59 1 71.5789 72.5602 63.5603 0.14207 -0.315308 -0.414641
60 1 70.0157 70.0067 64.5038 -0.000157765 0.000181707 0.000132036
61 1 72.9361 69.5704 64.8574 0.000314899 -0.000724955 -0.000805783
62 1 73.4367 68.2756 61.9807 0.419098 -0.266 -0.0952725
63 5 76.3304 68.9761 62.1484 0.18285 0.00305404 0.357609
64 1 74.2428 71.3597 62.7703 0.251679 -0.646949 0.871998
65 2 77.2614 71.167 63.659 0.0651739 -0.088753 0.184121
66 2 75.5698 69.4647 64.549 0.000127723 -0.000540153 0.000446388
67 3 78.9082 68.7283 63.8348 0.496289 0.748473 -0.513165
68 1 75.8734 71.5411 66.0767 0.000278459 0.000671158 7.38465e-05
69 3 84.536 68.1324 65.3941 -0.0571412 -0.299783 -0.554243
70 3 80.1962 70.9471 64.3923 0.293449 0.354639 0.30619
71 1 81.6859 68.7119 64.2832 0.441747 -0.00407406 0.391033
72 5 68.5149 72.975 64.0336 1.41825 0.524321 -0.372263
73 1 66.1319 73.0954 65.3117 0.226443 0.560569 -0.635631
74 1 69.4415 75.7862 64.7196 1.06883 0.099864 -1.52185
75 2 72.108 75.1729 64.575 0.540348 0.600329 -0.282075
76 1 72.1354 77.644 65.7313 0.562074 -0.653201 -0.245888
77 1 74.5618 74.0219 64.3677 0.60365 -0.193992 0.341957
78 1 75.0688 76.981 65.7791 0.14445 0.00952729 0.538671
79 4 78.5886 73.2486 65.0756 0.151006 -0.539877 0.230822
80 2 77.1728 75.466 65.0094 0.262432 0.117119 -0.151383
81 2 82.3251 72.8742 64.9853 -0.182878 -0.632231 0.73504
82 1 71.3312 52.7646 69.8024 0.513715 0.0580541 -0.345887
83 1 74.3612 51.7593 70.2734 0.444796 0.240105 -1.26994
84 2 72.3443 52.3431 67.5964 0.820305 -0.0172292 -1.06005
85 1 77.2809 51.9498 69.9316 0.130711 0.11351 -0.387465
86 1 61.2249 57.2537 68.8584 -1.00613 0.328064 2.38303
87 1 63.1978 56.5877 67.1922 0.55263 -1.29554 -1.17371
88 2 64.0485 57.5371 69.3245 -0.000355305 -0.000484702 0.000147196
89 1 62.8668 55.2975 70.9822 -1.02919 0.164906 1.98193
90 3 64.2715 54.7139 69.2715 1.85295 -0.60648 -2.16312
91 3 65.3888 56.5124 65.977 0.173438 -0.12679 0.108737
92 1 66.9325 53.7068 70.2094 -0.0141083 -0.701457 -0.869228
93 3 67.0984 54.5236 67.3196 -0.273077 -0.216889 0.581388
94 1 66.2932 56.4041 69.1691 -0.000678565 0.000432857 0.000598546
95 2 68.5224 56.5081 67.9625 -0.000283591 -0.00028137 0.000235288
96 1 69.7576 57.6021 69.9467 0.000246973 -0.000219881 0.000306393
97 2 69.1453 54.4593 69.567 0.697847 1.17845 0.78079
98 1 69.9395 54.3196 67.2214 -0.441087 -0.219333 -0.825669
99 3 71.6613 55.9164 68.7023 -0.000331376 5.32945e-05 -6.93186e-05
100 1 72.4779 54.746 66.188 1.14604 0.182256 0.981777
101 2 75.2599 55.5052 66.1475 -0.821085 -0.67067 0.999092
102 2 73.2732 54.3218 69.5023 0.000309907 -0.000208743 0.000861332
103 1 70.6588 57.2986 66.6968 0.000371282 -0.00052443 0.000483472
104 1 74.4795 56.3758 68.5513 -0.000478268 0.000452702 3.60869e-05
105 1 73.6918 56.8786 71.4776 0.000234175 -0.000107084 -4.43663e-05
106 1 75.0773 53.2993 67.7677 0.0813145 0.376237 0.267241
107 2 75.5912 54.4092 70.314 0.00014405 4.11571e-05 0.000204744
108 3 77.8166 54.5064 69.6262 0.000139204 0.000247756 -0.000143949
109 1 77.7674 54.1402 67.0721 0.35236 -0.116035 0.00100827
110 5 79.9548 52.9166 69.7673 0.700292 -0.195188 0.424341
111 2 77.0143 56.378 68.1548 6.72386e-05 0.000244096 -0.000110695
112 1 79.1798 56.7577 66.6369 0.34257 -0.162463 0.327378
113 1 76.7864 56.8135 70.8333 -0.00022557 0.000388807 -0.000727186
114 1 79.7877 56.149 69.8214 -0.000583158 0.000227753 -9.15344e-05
115 3 80.5833 54.2929 67.8066 -0.460269 0.981331 -0.33169
116 2 82.1724 56.2044 68.4627 0.0725829 0.0522524 -0.271541
117 1 82.7558 54.3988 70.6041 0.297454 0.745451 -1.1601
118 1 84.6396 58.5516 72.1838 -8.14101e-05 0.000165299 -0.00015223
119 3 59.7091 62.2891 70.435 0.0492295 -0.836405 0.895164
120 1 60.1159 60.2154 68.5061 -0.955849 0.120462 0.557074
121 1 62.619 59.48 67.6444 0.632049 0.269543 -0.726406
122 1 65.3734 58.8298 67.2359 0.210904 -0.354969 1.33325
123 4 61.7908 62.2106 66.5282 0.320737 -0.521082 -0.639072
124 1 64.6299 61.7763 67.7919 0.000338964 -0.000649391 0.000167852
125 3 62.8274 59.1645 70.2719 0.000339526 -0.000347987 -0.000377745
126 1 65.2762 60.219 70.1981 0.000129845 -8.62908e-05 -0.000611643
127 1 62.4077 61.7388 69.8085 -0.000210819 0.000298183 0.000672385
128 3 65.6601 63.2507 69.6259 0.00033979 0.000508009 -0.000228078
129 2 66.471 60.9697 66.0589 -0.000328322 0.000249889 0.000301297
130 4 68.0957 58.8661 66.7434 -0.000288882 -0.000249161 -4.28415e-05
131 1 70.2324 60.0971 68.0747 0.000181093 0.000307921 0.000528659
132 1 67.6645 61.64 68.5872 -0.000248794 0.000728464 9.44516e-05
133 2 67.403 58.849 69.211 -0.000133898 0.000309489 -0.000103135
134 2 71.4636 60.5694 70.5037 -0.000349154 0.000389793 -0.000586112
135 3 66.8322 62.0874 71.404 0.000154708 0.000785078 -0.000229834
136 1 72.6146 58.5739 69.038 -0.000184121 0.000218434 -0.000110694
137 2 71.5578 62.0747 66.7342 -0.000201406 -0.000143778 0.000247423
138 2 75.3388 58.9875 68.5133 -0.0001108 0.000210642 0.000539007
139 1 73.9985 60.5993 66.7659 -0.000568174 1.20546e-05 0.000359591
140 2 75.1375 59.1515 70.8242 -0.000285959 0.000679818 -0.000459602
141 1 73.6852 61.4988 69.438 -0.000395903 0.000190151 0.000135926
142 1 76.7324 61.3293 69.5074 -0.000112614 0.000260614 -0.000602386
143 1 76.3927 58.2494 66.2346 6.94432e-05 -0.000458755 -0.000705079
144 1 78.0889 58.7205 68.9374 -0.000287301 -0.000628173 -0.000207249
145 2 80.8308 58.4605 68.8066 7.23463e-05 0.000184909 0.000781819
146 1 79.3666 59.7883 66.4554 -4.29895e-05 0.000454794 -0.000147094
147 3 76.8239 60.6119 67.0473 0.000384543 0.000565695 -0.000401798
148 1 78.4974 62.6522 66.8156 -0.000599183 -0.000473521 0.000212159
149 2 79.6837 61.0141 69.0949 -8.64918e-05 -5.84794e-05 0.00035331
150 3 79.9345 58.8096 70.9936 0.000120878 0.000147976 4.85893e-05
151 1 84.4273 57.8372 69.101 -0.520068 0.307535 0.417541
152 3 86.8719 58.9112 70.5404 -0.0923104 -0.714603 0.0364894
153 1 81.8915 58.1343 66.4542 0.397022 0.0974375 0.219873
154 1 82.3846 60.5274 68.3012 0.000133431 0.000314534 -0.000168775
155 2 81.1542 62.7822 67.3903 -0.000344485 -0.000256119 0.000337147
156 1 84.3934 62.8783 69.3849 -0.000248134 0.000553374 5.61391e-05
157 1 85.1854 60.3257 67.8147 0.755122 0.675326 -0.478266
158 1 82.2606 60.2568 71.2341 -0.000249217 -0.000389797 -0.00040525
159 2 84.9078 60.4642 70.4023 0.00056427 -4.7249e-05 0.000112891
160 1 87.6231 61.4329 70.1893 -0.446097 0.714545 -0.185978
161 1 60.1918 63.2493 68.2396 -0.236091 0.81725 -0.168646
162 1 59.5492 65.2071 70.3966 0.0278395 0.396256 0.15179
163 2 60.9302 65.7952 68.0588 -1.07408 -0.264678 0.875663
164 2 65.5159 65.0986 67.9712 -0.000703011 0.000636663 -0.000112591
165 1 62.6677 66.1083 66.3918 0.0805278 -0.224025 0.694038
166 2 63.2815 67.1616 68.8899 0.000374731 4.75964e-05 -0.000179164
167 1 63.134 64.3811 68.8618 -0.000766267 0.000243273 0.000567738
168 3 61.5868 63.8668 71.0881 -7.91484e-05 0.000422479 -0.000263805
169 2 62.7849 66.0196 71.0033 0.000118158 -6.14714e-05 8.83968e-05
170 1 65.487 66.7064 65.9057 -0.000158526 0.000940018 -0.000253202
171 2 69.3614 63.4671 67.0884 0.000229013 0.000885213 -0.00045263
172 1 66.9039 63.5941 66.2895 -9.01456e-05 8.47679e-05 0.000215318
173 1 70.7623 62.8147 69.2806 8.78777e-06 0.000367623 -0.000359717
174 3 67.9039 66.0497 67.3112 0.000277685 0.000238099 -0.000100488
175 1 70.5771 65.6969 71.0756 -0.000269966 0.0002107 -0.000175162
176 1 67.9993 64.5541 69.5266 -0.000336298 9.5381e-05 0.00040513
177 4 73.1641 63.8521 67.6224 -0.000529319 8.77889e-05 -0.000108472
178 4 75.8044 64.0006 69.4366 -0.000177386 0.000184943 0.000400484
179 1 72.7403 66.4342 66.0448 6.60808e-05 0.000743359 -0.000738528
180 1 70.6472 65.569 68.0412 -8.46341e-05 0.0004074 -0.000285334
181 4 74.8237 65.9677 67.9946 -1.73121e-05 -0.000736509 -0.00128331
182 4 73.0054 64.6054 70.15 0.000116032 0.000569729 0.000318309
183 2 72.0091 62.7886 71.8244 0.000525052 0.000475956 5.27774e-07
184 1 78.6644 63.7617 69.7485 0.00052166 0.000326596 6.17606e-05
185 2 75.6606 62.902 67.1225 -0.000214303 -7.09858e-07 6.0961e-05
186 3 80.0816 65.0154 67.7779 -0.00036578 0.000132344 0.00101494
187 1 77.4956 65.4984 67.452 0.000414133 -0.00024798 0.000671894
188 2 78.6399 67.9149 67.8677 0.000494756 0.000453807 0.000245994
189 3 79.5386 68.5483 70.2961 -9.93165e-05 0.000435013 0.000698036
190 1 77.5637 66.8469 70.0783 0.000496918 0.000357781 0.000831494
191 1 80.6822 65.9549 70.4111 -0.000185205 -0.000301318 4.55451e-05
192 1 83.8554 62.9546 66.3978 -0.287018 -0.0527355 0.0979423
193 1 85.4373 65.9052 66.9991 -0.087233 0.0725895 0.930044
194 1 82.7163 65.2009 67.9256 0.000554748 -0.000146767 -4.06421e-05
195 1 80.0575 66.8554 65.8481 0.000258011 -0.000342777 -5.18598e-05
196 1 81.2689 67.8464 68.3691 0.00010957 -0.000234672 0.000157455
197 1 81.5764 63.0558 70.0394 -8.47453e-05 0.00043079 0.000182517
198 1 86.061 65.1109 70.4172 -0.00052184 0.000209936 -0.000354594
199 3 83.5989 67.8426 67.4522 0.000434106 -0.000224534 1.62802e-06
200 2 83.8152 66.9079 69.8378 -0.000569885 -0.000542744 0.000492048
201 2 85.7151 68.3061 70.6565 8.85913e-05 -0.000876563 -0.000260608
202 1 89.0876 64.2096 70.8903 -0.212589 0.439567 -0.0855809
203 2 86.6957 63.384 68.1566 0.283973 0.199814 0.0122549
204 1 88.1922 66.6786 69.1127 -0.703706 0.21631 0.521552
205 1 60.5708 67.9316 69.4531 2.48714 -0.542447 -0.349936
206 3 60.2198 70.4828 68.4383 -0.203321 0.500605 0.62545
207 1 58.4572 68.0998 70.8195 -1.78323 0.311263 2.22681
208 3 60.7488 72.4931 69.8527 -1.22526 -0.202206 2.02246
209 1 61.2138 68.669 66.8958 -0.980922 0.00557934 0.0822299
210 1 62.803 69.8659 69.0634 4.43687e-05 -0.00109298 0.000547941
211 1 65.8929 67.8991 68.5336 -6.30663e-05 0.00030268 -0.000178228
212 1 62.2654 72.5572 68.0916 1.50914 0.969983 -0.844931
213 1 65.4593 70.7976 69.3667 0.000394963 0.00105496 -0.000132729
214 2 63.1401 70.7724 66.4743 -0.45914 0.0681319 -0.182875
215 3 66.6201 68.7922 70.9087 0.00112661 0.000726856 0.000357928
216 3 64.7373 72.7832 67.2386 -0.637586 -0.342552 1.77306
217 1 68.7517 67.5941 69.4821 0.000318102 0.00087611 -0.000388353
218 2 67.9071 69.8462 68.4253 0.000312749 0.000923922 0.000647768
219 1 70.7304 68.5787 67.3029 0.000265868 0.000346925 -0.000104124
220 1 65.745 70.3353 66.5324 -0.000102095 0.000284465 0.000192173
221 1 68.6486 71.4871 66.5063 0.000246742 0.000441163 0.000141771
222 3 70.9785 68.3367 70.8447 0.000549179 0.00056301 -0.000310757
223 2 68.9183 69.3636 71.7123 0.00057722 -9.41283e-05 -4.24087e-05
224 2 73.3251 72.1798 65.8245 -0.000360712 6.38302e-05 -0.000765519
225 1 72.8245 67.4976 69.1749 0.00146827 0.000142809 -9.4091e-05
226 1 70.4911 70.5586 69.4265 1.4434e-05 -6.06635e-05 -0.00021491
227 4 73.3271 70.2768 70.3307 8.75348e-05 -0.000287203 -0.000643618
228 5 73.5702 69.9636 67.6295 0.000436629 0.000183902 -0.000312945
229 2 71.3158 71.0177 66.7202 -0.000627073 0.000309244 -0.000370586
230 4 72.7545 72.4415 68.5482 6.63435e-05 7.93317e-05 -0.000175741
231 3 75.3056 68.3197 69.9966 0.000261548 0.000224352 0.000284292
232 2 75.8118 70.4595 71.1922 0.000184755 2.78983e-05 0.000346631
233 1 78.4881 69.997 66.162 -0.000306376 0.000213686 0.00056675
234 1 75.8787 68.4995 67.2808 0.000184855 -8.50542e-05 0.000406315
235 1 82.0532 68.6316 71.3097 0.00019613 -1.83864e-05 0.000473209
236 2 80.8467 70.3406 69.3725 0.000317657 2.64431e-05 -0.000879455
237 1 77.6179 70.0701 69.191 0.000797158 -0.000332518 0.000451128
238 5 75.4875 72.0532 68.9917 -0.000154073 -0.000439443 -0.000376278
239 2 78.2067 72.2676 67.6835 -0.000521318 0.000124428 0.000394179
240 1 79.5104 72.4581 70.0505 0.000250858 0.000296608 0.000659006
241 1 86.0456 68.8516 68.143 0.0761948 -0.759539 -0.489417
242 2 81.1405 69.759 66.6448 0.000181024 0.000112292 0.000328428
243 1 83.5536 70.1017 69.0085 -4.86872e-05 -0.000573693 0.000131093
244 1 81.2778 72.2525 67.4597 -0.00017229 -0.00102512 -0.000288743
245 1 83.7331 70.576 66.1878 -0.449763 0.0316935 -0.119752
246 2 85.3979 72.2635 71.1132 -0.000282592 -0.000435918 0.000340889
247 2 86.328 71.4335 69.0718 -0.0537927 -0.126792 0.107908
248 3 88.4532 69.2503 70.3646 -0.556655 -0.244299 0.449026
249 1 64.9809 73.7431 69.8737 -8.18112e-05 -0.000466291 0.000274696
250 1 64.1554 76.6121 69.2372 0.328264 1.16229 0.522287
251 1 62.3127 74.8344 70.3472 -1.04012 -0.946167 -0.32554
252 2 68.5446 74.3833 66.5975 -1.10951 -0.707327 0.909389
253 1 67.3541 72.9175 68.5369 0.000507235 -0.00030865 0.000406336
254 2 70.0355 73.0796 68.5058 -7.9826e-05 0.000368056 0.000253434
255 3 67.4367 73.4637 71.2552 3.29049e-05 0.000527088 0.000360231
256 1 68.8149 75.2596 69.7241 0.000103948 -0.000182581 0.00037018
257 1 65.929 75.3395 67.4805 0.374058 -0.571553 -0.503987
258 1 68.0714 77.0648 66.7364 -0.180504 1.33468 1.25975
259 2 66.9588 77.1978 69.4936 0.076965 0.813738 -1.46398
260 5 70.1044 72.9543 71.1005 0.000402552 0.00129283 0.000108557
261 1 70.9555 73.4814 66.1337 0.000467825 -0.000201308 -0.00066708
262 1 73.4398 74.9866 67.1604 -6.88551e-05 0.00017844 -0.000196848
263 4 71.9861 74.4617 69.8795 -0.000243505 0.000287951 -0.000417644
264 1 70.656 75.9985 67.5889 -0.000321422 0.000397477 -0.000512496
265 1 74.8067 74.895 69.949 -0.00026513 -0.000646257 -0.000259369
266 1 71.5918 77.283 70.0494 0.000344218 0.000899061 0.000371199
267 3 76.1543 76.4972 68.3885 0.000337511 6.51851e-06 1.50431e-05
268 1 76.3206 74.2116 67.1697 -0.000565642 0.000463389 7.50616e-05
269 1 79.436 74.7219 67.5503 1.82861e-05 0.00025547 -0.000162162
270 1 78.2229 77.2708 67.1172 0.756245 -0.357357 -0.626957
271 1 77.7988 74.8894 69.8941 0.000179054 0.000178926 0.000166732
272 2 77.003 77.3836 70.6268 0.000507826 6.2796e-05 0.00021128
273 2 79.1604 77.2317 69.7455 -0.00073219 -9.91826e-05 -3.81907e-05
274 1 80.9929 75.1265 70.3724 0.000229307 -0.00037119 -0.000116593
275 1 82.791 72.6857 70.3262 0.000141617 -0.000504895 -7.46699e-05
276 3 81.8018 74.7518 66.7217 1.2493 0.360329 0.355595
277 2 83.4099 75.2713 69.1601 0.0309849 0.436503 0.348852
278 1 81.464 77.2875 68.6022 0.379079 -0.116894 -0.681
279 2 84.4448 77.1363 70.822 -0.110038 -0.297823 0.00397647
280 1 84.227 73.1677 67.8526 0.121102 -0.879685 -0.177686
281 1 86.3799 74.5456 70.336 0.00813955 -0.26492 0.281325
282 3 65.2459 78.6716 70.9883 0.599127 -0.459933 -0.268553
283 2 69.1898 78.4492 69.1794 0.211 -1.26399 -0.0906616
284 1 67.5119 79.7618 70.4402 -0.114363 0.913698 0.792657
285 4 70.7716 79.0131 67.5925 0.537604 0.781949 -0.18469
286 1 74.0546 77.938 68.7348 -0.217246 -0.207366 -1.79061
287 2 72.9295 79.9974 70.0411 1.41618 -0.0572544 -0.303572
288 1 75.8672 80.2427 70.9457 0.415678 0.668773 0.559626
289 1 76.788 79.1267 68.5728 0.232945 0.413187 -0.15494
290 2 79.6785 79.5126 68.8369 0.0458001 -0.182837 -0.370664
291 1 66.323 52.4507 74.4488 -1.22393 0.886131 -0.555672
292 5 68.5869 51.0509 73.8267 0.389736 -1.62525 0.776451
293 3 71.3309 51.3541 74.241 -2.03085 -0.355802 1.35556
294 1 69.6095 52.2996 71.7103 -0.130564 0.349486 0.618071
295 3 70.5506 50.2432 76.1957 1.04246 -0.186811 0.392061
296 1 74.1686 50.1446 75.3459 -0.999429 0.554582 0.624432
297 1 77.3368 49.3359 76.2992 1.29709 -1.24225 -1.02887
298 1 75.6995 49.9638 73.1474 0.941874 0.136433 -1.53776
299 1 72.7839 51.352 72.448 1.10021 -0.186314 -0.599556
300 1 76.7603 51.9079 75.1607 -0.000103785 8.08186e-05 2.2815e-05
301 3 74.2334 52.915 74.5482 0.000342008 0.00027868 0.000277059
302 1 76.272 52.7891 72.4909 -0.000404425 -0.000360585 0.000224585
303 3 79.4342 51.4888 72.2322 -0.304131 0.591937 -0.256398
304 2 78.6414 50.0711 74.0921 -0.304836 -0.278188 -0.179006
305 2 82.9104 50.3061 76.0179 -0.635657 0.0466584 1.22913
306 1 80.0807 52.1171 74.9778 0.000205537 -0.000415515 0.000107925
307 2 84.4542 50.7567 74.4549 1.1468 0.579992 -0.686211
308 1 87.0211 52.2427 75.793 -0.49161 1.38284 -0.413987
309 2 60.7045 55.8902 75.8165 -0.949053 -0.168258 1.75763
310 1 62.3436 55.9696 74.0413 1.64482 0.44669 -1.81998
311 1 62.6735 53.6964 76.0687 -0.310504 -0.452622 0.818933
312 1 67.4419 56.0589 71.8759 -0.00026634 -0.000208632 0.000719871
313 2 64.9681 54.6244 75.5627 0.000123647 0.000164258 0.000109007
314 1 63.2951 53.2769 73.3905 -0.219785 -0.0235406 0.330758
315 1 67.3292 55.5081 75.1689 -6.69571e-05 0.000369682 -0.000816796
316 3 61.8624 57.448 71.7278 0.310274 0.21303 -0.838216
317 3 65.1318 55.4558 73.2959 -0.000508526 -2.06762e-06 0.000123691
318 1 64.9523 57.6554 74.7135 0.000259982 -0.000120564 0.000262192
319 2 65.2137 53.6072 71.8991 0.164726 -0.0871622 -0.0833908
320 2 71.6361 58.5176 71.8004 -0.000484261 0.000499088 5.73598e-05
321 3 67.9449 53.6188 72.9729 -0.4042 1.20951 -0.296596
322 1 69.2373 53.2541 75.4287 0.000159802 -0.00038507 -0.000308608
323 3 69.4207 55.4614 73.4629 0.000238212 -0.00066886 -0.000164893
324 2 69.4574 57.8369 72.5934 -0.000125181 -0.000655559 0.000792003
325 1 71.0081 55.3435 71.2845 0.000351674 -0.000160937 -0.000260901
326 3 71.5975 56.7102 73.4973 1.43376e-05 -0.000115818 0.00027474
327 1 70.3586 56.1985 75.8093 -6.6993e-05 0.000694322 -0.000939004
328 1 71.5762 53.9505 73.8617 0.00066475 -8.57094e-05 0.000778586
329 5 73.7234 54.0962 72.0988 -8.11676e-05 0.000565206 8.17198e-05
330 4 76.4277 55.4534 73.3807 0.000429522 0.000104485 0.000319867
331 1 73.8547 55.8006 74.6062 0.000803902 0.000477469 0.0001378
332 1 76.1545 54.4886 76.3703 0.000160282 1.16467e-05 0.000171205
333 4 78.245 56.5195 75.6637 0.000894953 -0.000158792 -1.16172e-05
334 3 78.2292 54.053 74.5967 0.000684291 -0.000506305 4.02639e-05
335 1 80.8166 54.9639 74.8678 -0.000288196 -0.000164117 8.65495e-05
336 1 78.9138 54.1417 72.0872 -0.000421557 2.56208e-05 -1.81604e-05
337 1 79.085 57.1215 72.9428 -0.000887766 0.000191535 9.9262e-05
338 3 81.138 55.5277 72.2962 -0.000948695 -0.000175418 -0.000330705
339 2 83.0219 56.1732 76.0407 0.000218868 -0.000819217 -9.93823e-05
340 1 82.0208 52.8225 72.7749 -0.711094 -1.01072 0.861574
341 1 85.0913 52.8583 72.9043 0.447426 0.521107 0.528503
342 1 83.5011 52.9976 75.7745 -0.000386392 5.91464e-05 -1.32363e-05
343 1 83.6468 55.2307 73.5127 5.64343e-05 0.000230357 -0.000277072
344 3 85.5028 54.732 75.7478 -0.000427056 -0.000328096 -0.000168032
345 2 87.6119 56.5543 76.2217 0.000485472 0.000434212 8.56258e-05
346 5 87.482 54.6621 74.0143 -0.0699312 0.251551 0.158417
347 5 85.5808 55.8221 71.4204 -0.00318498 0.155904 0.0739952
348 1 88.0762 57.4955 72.865 0.111614 -0.48705 0.0973061
349 1 90.1327 56.203 75.2001 -0.0252597 0.994591 -1.20524
350 1 60.7433 59.8634 71.4354 -1.06643 0.517049 -0.295274
351 2 60.1541 57.865 73.2141 -0.507015 -0.0920126 1.07684
352 2 61.4155 58.2995 75.8559 0.28225 -0.0107262 -0.634556
353 1 60.568 60.6196 74.1441 0.00382883 -0.511933 0.634322
354 3 59.0325 62.2546 75.248 -0.339857 0.700639 1.01484
355 2 61.9598 62.5181 73.0512 0.000290145 -0.00106565 0.000765424
356 5 62.7219 58.8955 73.6936 -7.91e-05 -0.000384571 0.000552324
357 3 63.2763 60.7335 72.089 1.08359e-05 0.00024716 0.000194062
358 2 66.2485 60.0816 76.197 -4.07008e-05 0.000350657 9.59389e-05
359 1 64.6101 57.6 71.8078 0.000170801 0.000225292 0.000426045
360 1 63.5994 61.2909 75.1788 0.000341074 0.000392046 -0.000322044
361 1 65.5544 60.4566 73.2562 -3.72794e-06 -6.1211e-05 0.000179139
362 1 67.6927 58.3448 74.4415 0.00034298 0.00024566 0.00079235
363 4 68.9062 61.1264 76.3949 0.000741383 -9.87458e-05 -0.000545374
364 1 70.5319 58.9799 74.8269 0.000161763 -0.000144602 -0.000617898
365 2 67.0307 58.6808 71.7754 -4.41567e-05 -0.000739903 0.000495749
366 1 68.2312 61.2904 73.8124 -3.34256e-06 0.000975586 5.79699e-05
367 1 68.9086 60.2673 71.006 -0.000348927 0.000622128 -2.51361e-05
368 2 70.8018 60.7278 72.8878 -0.000459836 0.000447961 -0.000119047
369 1 72.7469 60.8103 75.3931 -5.57821e-05 0.000733921 -0.000252383
370 1 75.408 59.682 76.0763 -0.000139864 0.000194055 -0.000153188
371 3 73.125 58.4337 74.1078 0.000224918 0.000441833 -0.000464007
372 1 73.4719 60.4037 72.4212 -0.000964326 0.000113841 9.46565e-06
373 1 75.6461 58.1767 73.5004 0.0001802 0.000469152 -8.65101e-05
374 1 78.1278 59.4362 74.8294 0.00010844 -0.000493767 -0.00032494
375 2 75.2838 62.2408 75.751 3.10135e-05 0.000276061 2.95505e-05
376 4 74.6723 62.8562 71.6262 0.0002915 0.000250782 8.0027e-05
377 2 75.8148 61.087 73.5858 -0.000292727 0.000115026 0.0002471
378 1 77.5674 59.7321 71.8609 -0.000193282 0.000802033 0.000134056
379 2 80.3728 58.2902 75.7419 -0.000781513 -0.000200096 0.000303775
380 5 82.2703 57.3653 70.9066 0.000123735 5.90899e-05 -7.69958e-05
381 1 82.1235 57.7048 73.8046 -0.000845774 -0.000326169 0.000506983
382 3 80.3687 59.5693 73.2572 -0.000224588 -0.000113161 0.000376253
383 1 79.6893 61.663 71.8056 0.000240015 -0.00036005 0.000829988
384 1 80.7963 61.166 75.2888 -0.000508524 0.000339207 0.00032408
385 2 82.014 62.5176 73.1707 -0.000326478 0.000298529 0.000293931
386 1 82.9565 59.1862 76.41 -6.0292e-05 -0.000194354 -0.000683139
387 2 83.9845 62.1888 75.0895 -0.000443204 -0.000825596 -0.000213105
388 2 87.9156 58.9409 75.1465 -9.36824e-05 0.000146431 0.000140211
389 3 82.9845 60.2366 73.8211 -0.00109381 -0.000205735 -0.000169961
390 1 85.6639 57.1122 74.4537 -0.000177214 -0.000542271 -0.000582211
391 4 85.372 59.8927 75.0411 -0.000651422 -0.000389879 -0.000280386
392 1 84.6298 62.1287 72.4597 -0.000670619 -0.000311372 0.000724616
393 1 87.0575 60.3539 72.8736 7.17788e-05 -0.00016014 -8.34316e-05
394 3 89.3872 59.6598 71.9862 0.356872 0.339509 -0.00615195
395 1 89.8311 62.1827 73.2544 -0.573518 -0.333665 0.305159
396 1 90.5 59.2292 74.727 0.0273226 0.0818925 -0.0823607
397 4 92.5192 61.8412 75.5796 -0.181651 0.203457 -0.178854
398 2 89.3324 61.0005 76.3595 -0.000231375 0.000192958 -0.000488212
399 1 59.2473 63.2287 72.7989 0.879255 0.184986 0.404678
400 3 59.3488 64.8215 75.5752 0.365278 -0.271148 -0.470821
401 1 59.1642 66.187 73.164 -0.709409 0.610342 0.322066
402 1 61.6006 63.3743 75.6382 0.000329717 -0.000310379 9.32282e-05
403 1 60.1129 67.5174 75.7894 0.316901 -0.40341 -1.10248
404 2 63.153 66.209 75.6616 0.00016917 -0.000148906 0.000331322
405 1 61.8466 65.268 73.4228 -0.00032445 0.000291555 0.000408838
406 3 61.1453 67.4966 71.9376 -0.000524752 3.088e-05 -0.00024251
407 1 64.2297 63.275 71.8084 0.0003465 -0.000301229 0.000568457
408 3 66.0845 62.509 75.2692 -7.3725e-05 0.000289198 9.27245e-05
409 1 64.6593 66.4419 73.3291 0.000724159 -0.000457652 -6.31683e-06
410 3 68.5349 66.7551 75.0279 6.1935e-05 0.000222432 -7.72795e-06
411 1 65.5225 65.8596 70.6066 -0.000442627 -0.000135033 0.000119338
412 3 66.1411 68.731 73.383 -0.000250092 0.000511743 5.30913e-05
413 2 64.1511 63.9314 74.3948 -3.41421e-05 0.000488656 0.000312028
414 1 68.8756 66.7616 77.69 -0.000350365 0.000231819 -0.000144109
415 3 73.5518 62.7239 73.9206 -6.67246e-05 0.000896683 -0.000152616
416 1 69.3035 63.0931 71.7769 -0.000818769 0.000134233 -0.000256596
417 1 66.8005 64.1617 73.2278 -6.29792e-06 0.000352499 -0.000104077
418 1 72.642 65.1505 73.2984 0.000291409 -0.000120512 3.58742e-05
419 3 69.5161 65.0462 73.5325 -0.000180787 0.000673402 6.97982e-05
420 3 70.6369 68.2687 76.0887 -0.000161585 0.000137572 -0.000106184
421 1 70.7313 67.5176 73.4732 5.04612e-05 0.000779753 -0.000108416
422 1 70.8781 62.9122 74.4007 0.00069442 0.000534554 1.42725e-05
423 2 75.589 63.1687 78.0342 -0.000491335 0.00030892 -0.000234667
424 1 73.6554 64.298 76.2833 -0.00021691 0.000507435 -0.000117238
425 1 67.848 66.8635 72.3749 -0.000868159 0.00052036 -0.000376557
426 1 75.1759 65.8185 71.4965 0.000693372 0.000678638 -0.000277826
427 1 75.7389 64.16 73.9097 -6.70867e-06 0.000430398 8.66827e-05
428 2 77.1341 62.7054 71.8189 -0.000255695 -0.000364582 0.000415737
429 1 78.1592 62.424 74.2403 -9.14643e-05 0.000603008 -0.000117396
430 2 74.7124 66.6246 74.331 -0.000132674 0.000790706 -1.69578e-06
431 1 77.7065 66.2187 74.6467 -0.000182568 0.000440591 0.000263786
432 3 77.717 65.0781 72.1321 -0.000244527 0.00025295 -3.88743e-05
433 1 80.1648 64.4595 72.9306 0.000476263 -0.000330441 0.00102395
434 4 79.2197 67.3522 72.5239 0.000311011 0.000554247 0.000245244
435 3 80.2705 66.4899 74.8192 0.000334755 0.000306858 0.000494897
436 3 81.9096 66.6766 73.0697 -0.000351993 9.73573e-05 0.000671687
437 1 79.9731 64.0822 75.9218 0.000139677 -0.000441313 -0.000343602
438 1 82.7861 64.6638 74.8895 1.80094e-06 -0.000332858 0.000435998
439 1 83.3131 64.847 71.7448 0.000349774 -0.000754205 8.81479e-05
440 1 84.9884 66.497 76.1352 7.5935e-05 -0.000616509 -0.000466702
441 2 85.4253 63.7601 76.4516 -5.078e-06 -0.000216936 0.000144757
442 3 87.1619 63.0536 72.25 -7.59078e-05 -8.34122e-05 -0.00052989
443 1 85.7674 64.7466 73.7392 -0.000188897 7.67641e-05 0.00027331
444 1 87.8449 65.3606 76.0234 2.76969e-05 0.000443662 -0.000393484
445 1 87.3109 62.3364 75.0298 -5.65508e-05 -7.64702e-06 -0.000521906
446 5 91.4811 64.7874 73.8625 -0.119117 0.574774 -0.315019
447 2 88.6821 64.7544 73.5307 -3.32523e-06 -0.000183427 0.000355304
448 1 90.2766 63.6853 76.1153 -7.97935e-05 0.000332043 -0.000862734
449 1 87.6132 66.9867 72.1701 8.76836e-05 -0.000205178 0.000711933
450 3 89.6267 66.9148 74.5586 -0.000414998 0.000693662 -0.0004764
451 1 90.4466 67.0165 71.9011 0.0633305 -0.562371 0.204786
452 1 92.2606 67.6139 74.8021 -0.525312 -0.441175 0.0409719
453 3 59.7155 68.9997 73.3998 -0.494461 -0.45134 0.694109
454 1 60.8829 70.192 71.4895 0.303903 0.176372 -0.398214
455 1 61.135 71.3105 74.518 0.190093 -0.572172 -0.255582
456 1 62.3158 68.3872 74.1257 3.30281e-05 0.000304426 -0.000173197
457 1 63.275 71.9366 71.3838 0.000308823 0.000368076 -0.000713987
458 1 63.9177 68.6037 71.433 -1.80847e-05 0.00064479 -0.00079816
459 2 64.7346 68.3615 75.341 -1.8368e-05 -0.000423214 -0.00029095
460 2 63.9251 70.3557 73.5606 -0.000745081 6.24377e-05 -1.49067e-05
461 1 66.3792 70.982 75.041 -0.000341925 0.000429096 -5.08914e-06
462 1 66.1021 71.1681 72.1532 -0.000268894 0.00113574 0.000518845
463 1 63.8643 70.634 76.3467 0.000408156 9.53641e-05 -0.000110788
464 2 68.1242 71.2198 70.446 0.000147769 -0.000109609 0.000719602
465 1 68.6615 69.316 74.3476 -0.000193428 0.000261465 0.00012663
466 2 72.5238 69.1609 74.6907 -5.11029e-05 0.000568929 0.000210361
467 5 68.7433 71.9114 73.1832 -8.50091e-05 -1.11212e-05 0.00029003
468 1 71.3759 70.4962 72.5171 0.000353589 3.48938e-05 -0.000204138
469 4 73.0671 67.2244 76.4554 -0.000120708 0.000413046 -2.2749e-05
470 1 70.6334 71.2143 75.4993 0.000156559 -4.68974e-06 0.000139861
471 1 76.3864 68.3004 72.6792 0.000501096 0.000462724 0.000105698
472 1 73.3487 67.9739 72.176 1.56485e-05 0.000235286 -7.34297e-05