ITEM: TIMESTEP
891
ITEM: NUMBER OF ATOMS
1985
ITEM: BOX BOUNDS ss ss ss
7.0195722853999996e+01 1.1237641714600001e+02
1.8754678130000002e+01 5.7982021869999997e+01
7.2545002747002854e+01 1.1556533031889971e+02
ITEM: ATOMS id type x y z fx fy fz
107 1 75.4445 26.8078 81.7304 -0.600561 -0.473698 1.25067
352 1 75.673 25.5586 86.1915 -0.762678 0.641712 1.80542
346 1 77.1322 24.9875 84.095 1.42142 -0.578755 -1.59554
348 3 75.9967 27.4364 84.4807 0.997007 0.2446 -1.23839
347 1 73.906 28.2806 85.5582 -0.44628 0.240061 0.632978
349 3 75.9896 28.2193 87.4124 -2.75007e-05 -0.000145461 -8.33856e-06
666 1 75.2823 27.1114 91.8858 0.660738 0.409648 0.50189
667 1 75.3679 26.1726 88.9298 0.581897 -0.14374 1.38947
673 5 76.3312 24.3387 91.6826 -0.111301 0.521842 0.917667
1021 3 77.2196 27.4628 98.1781 -0.0572567 0.205488 0.357887
1020 1 76.1181 28.0565 94.9993 0.645214 0.451143 -0.1832
7 3 76.768 31.3167 77.8207 -0.973404 0.192793 0.860012
23 4 74.4292 36.0718 75.9409 0.466118 0.05147 0.445079
26 2 76.5994 37.6213 75.508 -0.330646 -1.12805 0.342297
132 1 75.2224 29.3477 80.0325 0.820987 0.24244 -0.128257
133 1 74.8693 32.2291 79.4739 0.235514 -0.686704 0.0871051
136 1 72.9139 32.2351 81.8027 0.813018 -0.341197 0.249954
131 5 71.6118 30.2144 83.1805 -0.246485 0.0527846 1.04902
134 1 74.2043 29.3183 82.6837 0.0388335 0.39997 1.08096
135 2 75.8123 31.9039 82.1669 -3.50111e-05 0.000279481 0.000101711
392 1 77.1195 29.4342 83.0092 -0.000114765 -2.72741e-06 -9.54653e-05
172 1 71.8268 37.0667 80.6387 -0.266933 -0.0467047 1.37575
174 1 73.606 34.632 80.4512 -0.833211 0.840845 1.01319
175 2 75.0017 34.8164 78.5015 1.28162 0.135972 -1.92498
176 1 73.5362 37.1427 78.6018 0.634197 0.108883 -0.480618
183 1 76.7861 36.8 78.2342 -0.000335348 2.36701e-05 -0.0001689
179 3 72.6618 35.1056 82.8449 0.1605 0.720129 -0.285174
173 5 70.4896 38.0601 82.7697 0.43698 0.490646 0.961024
177 2 74.7801 37.1201 81.023 -0.000241469 0.000149019 -0.000231695
440 1 75.3318 34.5741 82.8872 -0.000117204 0.00012195 0.000124566
181 5 77.1562 33.8798 79.7628 -0.000194661 2.61155e-06 0.000454398
221 1 73.4433 38.1241 83.1573 0.000104649 -0.000174052 -2.57245e-05
393 2 76.2118 29.7775 85.513 0.000598324 -0.000420797 3.84119e-05
397 1 76.1951 32.8074 87.3342 -0.000164791 -0.000189089 -0.000608389
389 1 71.6424 33.1918 84.2594 0.50886 -0.559697 0.880401
390 1 72.1003 30.466 86.2519 0.364424 0.386104 -0.238819
391 1 73.2139 33.0221 87.305 -0.000130511 0.000119288 -0.000145107
394 1 74.4688 31.8194 84.6418 0.000304865 -0.000318105 -1.9254e-05
398 2 74.7648 30.553 87.3498 -0.000284768 -0.00026205 -0.000665529
443 2 76.6148 36.9388 83.7234 0.000139673 -0.000253404 -0.000350201
445 2 76.479 35.8796 87.9383 0.000242724 0.000507933 -0.000609075
442 1 74.9413 37.663 85.7919 0.000194878 -0.000353806 -7.11362e-05
438 1 73.566 35.9841 87.9492 -6.24446e-05 -7.7325e-05 -0.000193374
439 2 74.454 34.6624 85.4874 8.52704e-05 -0.00011647 7.18029e-05
435 1 70.6984 34.4937 86.6834 0.305589 0.186516 1.3463
436 1 72.2553 36.3087 85.151 0.298953 -0.33673 -1.05714
437 3 71.0601 37.4333 87.0386 -0.372891 -0.155233 1.3701
710 4 72.8859 29.2354 91.3732 0.82499 0.371355 0.235914
711 1 73.5441 28.6253 88.7178 -0.232898 0.00491081 -0.584578
712 4 71.8889 31.3171 89.1906 0.01479 -0.121249 0.0799311
713 1 73.8727 32.3409 92.3044 0.46851 -0.0406258 -0.0598584
714 2 74.4611 31.3635 89.7502 -0.000250149 0.00025973 -0.000841806
715 1 76.2138 30.4169 92.8629 -4.81736e-05 -0.000727495 -1.71344e-05
716 1 76.1274 29.1285 90.0062 -0.000331494 -2.11725e-05 -0.00021754
721 4 77.2195 33.4334 92.901 -0.000297854 -0.000392444 6.68667e-05
719 1 77.1174 31.9162 90.3228 -0.00057015 0.000166715 0.000346604
775 1 76.0526 36.8506 90.7738 0.000201107 0.000275753 2.52485e-05
766 2 72.5652 33.8862 89.906 -0.609813 0.00584149 -0.24888
767 1 72.2118 34.8053 92.4208 0.453474 0.215198 0.587684
768 3 73.4768 36.3302 90.7411 7.95132e-05 2.87964e-06 1.88679e-05
769 1 70.9555 36.2359 89.5138 0.93862 -0.274992 0.277412
770 2 75.0884 34.7818 92.4513 3.90177e-05 -0.000186767 -0.000731101
771 1 71.9966 37.8023 92.5768 0.254428 -0.432263 -0.201402
772 1 75.1559 34.1256 89.8215 -0.000447246 0.000406659 -0.00109868
1118 1 74.5053 36.7986 94.0141 -2.50727e-05 -0.000160928 -0.000573639
1065 4 73.8593 30.281 94.4969 0.53224 0.207254 0.015742
1068 1 76.7714 33.1304 98.0623 0.359106 -0.0603167 -1.32287
1066 3 76.3029 32.124 95.3251 0.000604098 0.000431841 0.000225138
1067 1 76.5393 30.101 97.3862 0.139131 -0.0463948 0.0111567
1114 1 74.1139 33.6697 95.2724 -0.136283 0.642591 -0.659027
1115 3 72.2158 35.8968 94.9767 0.509109 -0.0144576 -0.10945
1117 1 74.6156 35.6392 97.7286 0.920341 0.232469 -0.839223
1174 2 76.0658 37.9362 95.8413 -0.0012607 0.000313928 0.000118676
1120 2 73.2851 38.1565 96.3175 0.372184 -0.901754 0.387183
1116 4 76.6099 34.9729 95.2594 -0.000625371 0.000337069 -0.000461021
1407 4 77.1317 29.7236 100.531 0.759917 0.0119007 -0.782284
1457 2 76.2049 33.8818 100.484 0.506644 0.553555 0.0889197
1459 3 76.4198 36.531 100.263 0.490967 0.212112 -0.0795429
50 4 73.7128 41.527 75.7166 0.1286 0.109418 0.405752
52 1 76.3966 40.5321 75.2477 0.775448 0.71401 -0.00340327
48 4 71.9606 39.5491 77.3544 0.252205 -0.0903007 0.219547
49 1 74.809 38.8895 76.9328 0.33152 0.858617 -0.0129441
222 3 76.585 41.2964 77.8936 -0.000129024 -0.000129956 -0.00021697
81 3 75.8016 43.3492 75.1348 0.0908685 -0.000351056 0.232081
80 1 75.1877 43.697 77.6454 -0.474317 -0.194814 0.134882
225 1 76.3356 39.2128 79.724 0.000288117 5.48139e-05 6.81314e-06
492 5 76.2258 39.301 82.6777 -0.000247577 -0.000179454 5.38666e-05
216 1 72.8803 42.625 81.1884 0.873946 0.384415 -0.370347
217 5 71.6886 39.9821 80.1859 -0.463285 -0.237823 -0.17298
218 2 74.0138 39.7397 81.1354 0.000130227 -0.000505474 -0.000380546
219 1 74.0294 41.1277 78.7597 -0.000168021 6.48645e-05 -0.000123609
220 4 75.91 41.8747 81.0146 -0.000340245 -0.000244202 5.48146e-05
215 1 71.1409 41.0096 82.7917 0.926094 -0.625374 1.0298
262 1 73.2261 45.644 81.7286 0.136568 -0.0284155 0.419633
542 1 76.3834 46.8333 83.0843 3.98017e-05 0.000104395 0.000549858
257 1 75.6238 46.6588 78.1799 0.223592 1.22077 0.50009
258 4 72.326 43.353 78.092 0.231309 -0.178305 0.371944
259 2 73.2514 45.8356 78.7964 -0.357221 -0.494807 0.651535
260 1 75.7262 44.7933 80.5158 -9.19664e-05 -0.000107204 5.43745e-05
261 1 74.6919 47.9439 80.6627 -0.252573 -0.163083 0.765599
488 1 72.3149 39.371 85.8999 0.46124 0.562878 -0.502929
489 1 72.1123 42.4357 85.7457 0.474427 -1.0242 -0.406664
490 2 74.3746 40.6202 87.2843 0.000117151 -0.000917788 0.000503832
493 5 73.9696 41.1694 83.7073 -9.78138e-05 -0.000529908 -0.00014697
494 1 76.322 40.4959 85.3504 -0.000295312 -3.23458e-05 -0.000280519
491 1 71.81 41.2728 88.4359 0.218459 0.251652 0.43553
537 1 75.0625 43.2292 86.2457 -0.000263412 -0.000708217 0.000244356
446 2 75.7041 38.4668 88.284 0.000216711 -0.000351961 0.000323264
541 3 74.5278 45.7843 84.9358 1.59494 0.428208 -1.77712
535 1 75.7138 43.7547 83.3847 -0.000407866 -0.000173942 0.00024113
540 1 76.9976 45.7845 86.0818 -0.000457163 -0.000282797 0.000733531
532 2 72.714 43.9338 83.707 0.57185 0.0207941 0.0448383
533 5 72.8027 45.2488 86.3463 -0.720201 0.190144 0.959067
534 5 70.8469 44.0385 87.5887 -0.338945 -0.127205 1.43007
873 2 73.4811 43.5157 88.4342 -8.51067e-05 0.00030185 1.3879e-05
538 1 73.6583 48.1148 83.5458 -0.221785 -1.15218 1.05982
539 1 74.2762 47.8294 86.761 0.493931 -0.0897311 0.467776
883 3 77.1636 47.9305 88.2868 0.00029093 0.000511099 0.000293996
825 2 76.5016 39.4804 90.4962 8.36188e-05 7.84869e-05 0.000110503
818 4 70.2003 39.0295 89.1262 0.157629 -0.0944984 0.1742
819 1 73.1379 38.6098 89.3039 -5.80486e-05 0.000384178 8.13478e-05
820 1 72.1738 40.6481 91.6474 -0.0903637 0.295889 0.297683
821 1 74.4899 41.2808 89.9687 0.000138588 0.000344318 -0.000171934
822 2 74.721 41.9537 92.73 -0.000305394 -6.29627e-05 0.000144907
823 4 74.5959 39.0372 92.125 0.000149445 0.000151532 -0.000135205
1177 1 76.9804 40.1508 93.5901 8.34374e-05 0.000353251 0.000398385
826 3 75.8993 43.0558 88.7901 -0.000149755 0.00103801 0.000639946
879 1 75.7645 45.7489 88.7753 0.000379798 0.000711736 0.000887171
874 1 75.1316 44.2623 91.3204 0.00019005 -2.23622e-05 0.000359323
875 1 72.2235 43.608 90.8458 0.539767 -0.499745 0.313463
876 1 72.9371 46.0692 89.3176 0.374008 0.0379655 0.00314996
877 3 74.7028 46.9647 91.8568 0.272082 0.390496 -0.752042
878 1 73.8257 45.4726 93.7185 0.00951171 -0.764367 0.948217
1229 1 76.7336 45.905 93.8902 3.83739e-05 4.92117e-05 -3.18313e-05
1171 1 74.1851 40.0678 94.8633 0.441654 0.824012 -0.282164
1172 1 74.5236 41.7206 97.5186 0.665825 -0.178917 0.0812583
1175 1 72.7552 42.8891 94.5317 1.16707 -0.612758 -0.338925
1170 1 75.9567 38.7777 98.4377 0.237857 -0.132066 -0.35249
1173 3 76.7382 40.4849 96.3944 0.000289918 0.000355096 0.000150392
1176 3 77.1173 42.6376 97.7058 -0.000372621 -0.000475282 0.00072539
1225 1 75.8959 43.034 95.0947 0.000241468 0.000108805 4.22869e-05
1224 1 74.7603 44.8587 97.2844 -0.0197769 -1.0753 -0.27833
1227 1 75.8169 47.4049 96.3759 0.965711 -0.0460969 -0.211157
1508 3 75.391 40.5967 100.254 0.0717834 0.311376 0.124121
1510 5 77.0125 41.7949 102.796 0.379409 0.26714 -0.119277
1558 1 75.7884 43.3887 100.2 1.10278 -0.0387375 -0.809196
1560 2 77.0632 44.5566 102.917 0.743499 -0.315335 -0.622844
296 4 76.6843 51.6698 81.6184 -0.571236 0.141793 0.425766
299 1 76.8956 49.4007 79.7349 -0.699058 0.0966614 1.80466
295 3 75.4739 49.6836 82.9443 1.37774 0.145968 -0.304708
582 1 76.7998 48.7928 85.5797 6.63643e-05 -8.63149e-05 0.000110078
583 2 74.6051 50.6013 85.1381 0.285056 -0.423748 0.462645
584 4 76.2669 52.862 86.8864 0.396576 -0.105308 0.462235
586 1 75.9821 50.3179 88.3063 0.539689 -0.206248 -0.198039
927 2 75.8855 48.7291 93.8131 -0.572911 -0.233912 -0.0173864
929 1 76.706 50.315 91.6468 -0.294921 -0.790798 0.191337
926 3 74.805 48.3287 89.6295 0.363814 -0.52714 0.0982987
2 1 83.2329 27.4168 77.2769 0.234067 0.466265 -0.26915
1 1 80.3283 27.9578 77.8477 0.91871 -0.600941 0.126762
114 3 82.5124 28.1979 79.7197 -4.1394e-05 0.000263826 -0.000152868
108 3 77.564 25.184 81.3541 0.156889 -0.0156383 0.502974
110 1 79.7382 26.4182 80.5305 0.770739 0.349777 -0.419541
113 1 82.1029 25.5922 79.0155 0.429851 -0.460165 1.19838
116 1 82.7603 25.1262 82.0974 0.368421 -0.0379801 -0.0655664
109 3 77.5403 27.7613 81.0232 0.683315 0.41662 -0.00877501
111 1 80.3042 23.9642 82.7991 -0.668036 0.438126 0.364391
358 1 81.7414 27.989 82.3122 0.000251078 0.000201809 8.51677e-05
329 1 81.9576 22.0105 86.0016 -0.562872 -0.577532 2.00641
331 1 83.5537 22.7206 84.0789 1.35187 1.03804 -1.13966
330 5 84.1938 20.2186 87.9904 0.728777 -0.198665 -0.356003
328 1 80.2714 22.9583 88.4645 0.527565 -0.659959 -0.463191
361 1 83.7375 27.4031 87.3138 -0.000244601 4.69317e-05 -0.000157561
357 1 81.2738 27.8511 85.5842 2.21032e-05 0.000466298 0.000313231
356 1 82.7482 24.3942 87.6324 0.0001131 -8.51549e-05 0.000116881
350 2 78.4974 25.1478 87.1856 -2.15018 1.10423 0.943266
353 1 79.185 26.8366 83.4074 0.000473668 -6.8146e-05 0.000154371
354 1 80.2152 24.4049 85.7696 1.00874 -0.0737109 -1.89933
355 2 82.4788 25.3297 84.8463 -7.75474e-05 -7.25324e-05 4.30353e-05
351 1 78.2335 27.6776 86.0874 -1.32246e-06 -4.44518e-05 -2.63845e-05
359 2 80.7651 26.3171 87.8807 0.000110541 -2.80627e-05 -0.000131242
362 4 83.9452 27.3447 84.1162 -2.96428e-05 -9.26125e-05 0.000404383
639 2 79.4775 21.9599 90.9104 0.36809 0.471048 0.116154
640 1 82.3535 21.8927 91.7209 0.112083 0.712574 0.367051
641 2 82.8669 21.9024 89.1212 -0.834554 0.887607 -0.228953
675 3 83.203 24.1392 90.3162 5.3542e-05 -7.98924e-05 -2.00542e-05
677 1 82.7945 27.0104 90.1255 0.000126077 -0.000383941 -6.61275e-05
668 1 77.8824 24.2003 89.5343 -0.274014 0.116238 0.00544536
669 2 78.0799 26.3922 91.679 -7.95714e-05 8.2396e-05 -4.47354e-05
670 1 78.3559 27.2274 89.1113 -2.9613e-05 0.000120833 0.000119206
671 1 79.4552 23.842 92.9356 0.80832 -0.314626 -0.306672
672 1 80.9098 26.8273 92.7126 0.000217431 -0.000342288 -0.00016661
679 2 82.3587 24.4808 92.5532 0.000334293 9.33727e-05 -0.000245553
674 1 80.582 25.0397 90.3984 -0.000142206 -0.000271216 -5.1566e-05
678 4 83.9584 26.7038 92.8438 -2.12486e-05 7.15369e-05 0.000614738
991 2 82.4356 21.4297 98.9672 0.449985 0.466129 0.475687
992 2 80.2686 23.4508 96.3646 0.135648 -0.161012 0.0381158
993 1 81.6585 21.8982 94.5639 0.464509 0.337579 0.268586
997 1 83.1883 20.0589 96.8353 0.752044 1.28303 -0.0337036
1000 1 83.1267 23.3338 97.1265 0.000164992 0.000267403 0.000266097
994 1 84.085 20.0383 94.194 0.9349 1.43242 -0.081642
1026 1 78.974 28.3059 96.5771 5.56422e-05 -0.000489604 -0.000235604
1022 4 78.7536 25.115 97.5494 -0.564993 0.550894 0.0870221
1023 1 78.3581 25.8596 94.5481 0.229088 0.698318 0.663682
1024 2 81.4964 24.8651 94.8044 0.000464203 5.69254e-06 9.00153e-05
1025 1 81.3712 25.8952 97.6334 -2.24223e-05 -8.84723e-05 -0.000328715
1027 3 80.9429 27.2548 95.2899 0.000612785 7.7695e-05 -0.000258203
1031 1 83.6947 26.3114 95.7341 0.000395306 0.000591889 0.000375276
1030 2 83.6482 27.0108 98.4604 -0.00032691 -0.000638193 0.000699134
1368 2 83.481 24.3411 102.923 -0.610534 -0.194807 0.506518
1369 1 81.9816 26.4738 103.351 0.424062 1.52859 -0.887751
1370 1 79.9915 26.717 100.2 0.373773 -0.263937 -0.0484959
1371 2 83.3285 25.9351 100.982 0.000361622 -0.00034946 4.77803e-05
1367 1 81.722 24.035 99.9011 0.910563 0.369195 -0.0456369
1074 1 82.3842 28.393 100.596 0.000288374 -0.000179738 0.000486377
1412 2 84.0932 28.2035 102.692 1.43971e-05 -0.000165718 0.000189803
9 3 78.5895 33.0285 75.0314 0.715226 -0.669913 -0.147661
12 1 81.1159 32.1646 75.1623 0.541084 -0.267921 0.583124
8 2 78.3268 30.2157 76.4658 1.21141 -0.289768 -0.80841
10 3 80.9633 30.3521 77.086 -0.520227 0.273203 0.356675
11 1 83.4682 30.2683 76.4381 -0.400814 0.0952496 -0.00668452
140 1 79.0893 32.4273 77.8139 -0.000100803 0.000112331 0.000250864
145 2 81.7678 32.6535 77.9166 -0.000156946 0.000146924 0.000329391
24 5 78.4738 35.6346 74.1319 1.35892 0.877749 -0.856725
25 1 77.4125 34.7897 76.3515 -1.42439 -0.347119 2.14495
33 4 82.9813 36.7337 72.7906 0.72087 0.325754 0.196406
30 3 79.1195 37.119 76.4499 -0.000142027 -0.000247044 5.36827e-05
31 1 81.7863 34.8223 74.1936 0.183677 0.0660681 0.305019
28 2 83.2285 34.13 76.6882 2.61851e-05 0.000137616 4.68463e-06
29 1 80.412 34.801 76.6862 -4.78076e-05 0.000212811 -5.15564e-05
32 1 82.6333 36.8339 76.4954 0.00016739 2.468e-05 -5.86215e-05
148 1 83.0284 32.3488 81.6999 -0.000414573 0.000312312 -0.000148089
144 1 83.4493 30.9524 79.0916 -0.000446177 -6.17825e-05 -4.40201e-05
137 1 77.8071 28.7317 78.6619 -0.373534 0.554774 0.401588
138 1 80.7062 30.2529 79.8124 -0.000511191 0.000193094 -2.01282e-05
139 1 77.8692 31.1303 80.5271 2.75975e-05 6.61119e-05 6.4448e-05
147 2 83.739 29.6471 81.4104 -0.000158174 0.000509331 -6.57403e-05
141 3 79.4176 29.0654 81.7355 -8.72731e-05 -3.12501e-05 0.000118143
142 1 80.4341 33.3343 80.3167 -0.000196852 0.000312098 4.62376e-06
402 1 80.2463 31.4685 82.8175 0.00026823 -1.96753e-05 0.000322025
191 5 83.9059 35.1039 81.3416 -4.31845e-05 0.000535886 -0.00043935
180 1 78.3302 33.8876 82.5202 -0.00024041 -0.00034295 0.000437878
193 1 82.0843 37.2096 82.2789 -0.0006883 -0.000247856 -0.000397234
186 3 81.4313 34.3939 82.6992 -0.000127808 0.000234422 0.000598378
182 3 79.056 35.3643 78.8843 -0.000421669 -0.000346729 -0.000465407
230 2 83.04 38.1011 79.6789 0.000415616 -0.000303282 0.000177593
188 3 83.743 33.6044 79.2113 -0.000105679 7.65846e-05 0.00011122
190 1 81.9089 35.664 79.2438 -0.000362085 -0.000297536 -6.37399e-05
185 3 79.965 35.9478 81.1992 -0.000775003 -0.000536768 8.32914e-05
27 1 79.7654 37.9947 79.016 -0.000156163 -0.000433807 0.000203056
178 1 77.3534 36.4645 81.1273 -0.000421197 -0.000177591 -0.000250082
399 2 80.3698 30.9375 86.1725 0.000114877 -0.000492151 0.000204283
400 3 79.4562 29.4615 84.3772 -0.00050862 -9.46404e-05 -0.000160554
401 1 83.0515 30.3625 86.8456 0.000266014 4.17014e-05 0.000252058
395 1 77.7593 31.8321 84.8226 0.000353663 -0.000157704 -2.44963e-05
403 1 81.6702 32.9324 87.8493 -0.000287651 -0.000522548 0.000223471
396 1 77.9951 30.2697 87.7212 7.31518e-05 -0.000151794 0.000290991
454 1 83.2194 33.2006 85.036 0.000105794 0.00040024 0.000253916
452 2 78.8737 32.9742 87.7479 -6.89397e-05 0.000130602 -0.000418787
724 1 80.7862 29.1331 88.6158 0.000192919 0.00015727 0.000804042
143 1 82.7985 30.2922 83.9863 0.000321444 0.000620386 0.000326801
497 4 81.1294 37.933 86.1602 -0.00013294 0.000715398 4.20281e-05
441 1 77.2738 34.8907 85.4712 -0.000103139 -8.83997e-05 0.000160914
449 2 82.5497 35.3952 87.0471 9.42877e-05 -0.00070126 9.82126e-05
448 1 80.2335 33.5877 85.1375 0.000174371 -0.000179893 0.000328151
447 3 81.8705 35.7627 84.7376 -0.000359044 0.000947407 0.000724103
450 1 79.7392 35.5969 87.3848 0.000176975 0.000538175 -0.000170275
187 1 79.4477 36.4184 83.9182 -7.62527e-07 -0.000235958 -0.000177483
451 4 83.9545 37.8358 86.6432 -8.07323e-05 -0.000346914 0.000539993
444 1 77.9328 38.0063 86.1624 0.000661332 0.000809521 -0.000747916
727 4 83.8766 31.1242 93.0891 9.39707e-05 -0.000168539 -0.00234404
717 2 78.7677 29.5234 90.6874 -0.000571465 4.20084e-05 0.000220019
720 2 81.3577 32.056 93.5014 -4.75226e-05 -0.000108491 -0.000513257
722 1 78.606 28.5982 93.2687 0.000517344 -0.000129184 0.000151424
723 3 78.9454 31.3 92.7023 -0.000522679 2.22314e-05 -0.000326937
726 5 82.9407 30.9463 89.7065 0.000124743 -0.000140294 0.000551329
728 1 81.2845 29.757 91.9436 -0.000460228 -5.3541e-05 6.26779e-05
730 1 80.0653 32.044 90.2573 -0.000711599 -5.83088e-05 -0.000309966
731 2 82.3493 33.0555 91.2778 -0.000854987 0.000526655 -0.000682777
776 1 78.4544 37.7263 89.0926 -9.47331e-05 0.00044923 -0.000656004
732 4 84.0129 33.7101 93.1506 -0.00222723 -0.000209522 0.000275401
777 2 80.0527 36.9201 91.3625 -0.000842396 -0.000235372 -0.000183235
453 1 83.7672 34.5479 89.4715 0.00015809 0.000205053 0.000171053
778 2 80.9772 34.8638 89.8681 -0.000266246 0.000155263 -0.000470134
1123 1 77.8139 37.0843 93.2509 -0.00065388 0.000223444 0.000365951
780 4 82.1144 37.2394 89.1518 0.000465003 -0.000108005 -6.35319e-05
773 1 80.1468 34.4163 92.6406 -0.000838089 2.77776e-05 -0.000407448
774 1 78.2377 34.7681 90.1312 3.92663e-05 -3.63893e-05 -0.00100098
779 1 82.8243 36.1653 91.9618 -0.00093267 8.11369e-05 0.000188563
1069 3 77.9091 30.3464 95.1151 -0.000363182 -0.000277164 -8.34282e-05
1070 3 80.3788 30.0459 94.8966 -0.000313774 0.000613154 0.00065396
1071 1 79.3058 31.2687 97.6227 -0.000141672 -0.000820121 -0.00018322
1410 3 79.6765 29.1969 99.3456 -0.000980823 -0.000193354 -3.22031e-05
1073 1 79.1287 32.748 95.051 0.00017212 -0.000452841 -0.000397071
1075 1 81.84 28.9188 97.4348 -3.57288e-05 -0.00026863 0.000457116
1076 1 82.1965 31.7563 96.2184 -6.92094e-05 5.82834e-05 0.000396938
1078 2 84.2165 29.7136 99.2961 -0.000338632 -4.281e-05 2.26401e-05
718 5 82.761 28.9347 94.4325 -0.000152559 0.00123151 0.000443311
1122 2 79.1095 35.5368 95.4141 -0.000532039 -0.00100496 0.000236079
1124 1 82.0503 34.1501 98.3371 -0.000374918 7.19034e-05 -4.65944e-05
1130 1 82.9663 37.0217 97.0376 -0.000198465 0.00016198 -0.000288097
1127 5 81.893 34.5617 95.3052 -0.000138435 0.00012228 -0.000208454
1125 2 80.3255 36.5841 97.5405 -0.000272228 -0.000661002 0.000213528
1119 1 77.556 36.0967 97.8184 -0.000200251 -0.000155462 -0.000199117
1121 3 79.5268 34.0186 97.3749 -0.000418418 -0.000737535 -3.10195e-05
1126 1 80.8698 37.107 94.208 -0.00112469 -0.000487275 0.000418623
1408 4 78.9252 31.1043 103.53 0.433126 0.377177 -0.141017
1409 5 79.1136 31.5991 100.764 -0.00111431 0.000522447 -0.000532846
1411 1 80.2268 28.9839 102.389 0.00375719 -0.28147 -0.300687
1413 3 83.8939 31.9365 100.991 -0.000520554 0.000264257 -1.16576e-05
1414 1 82.5062 30.7616 102.952 -0.000470919 0.00048379 0.000508201
1072 1 81.7433 31.2184 99.5408 -0.000575589 -0.000409407 0.00028776
1464 1 81.4313 36.5174 100.232 0.000169124 -0.00042786 0.000671031
1416 1 81.6078 33.6138 101.53 -9.33119e-05 -0.000489442 -0.000162319
1463 4 82.5146 33.6098 104.5 8.78898e-05 0.00262116 -0.000374665
1462 1 80.7299 36.5851 103.403 0.0004111 -0.000243153 0.000711133
1456 1 78.9926 34.4115 99.9574 -8.61708e-05 0.000625222 2.24698e-05
1458 4 79.845 33.7715 103.734 -0.299527 0.0849735 0.00134702
1465 2 83.2488 35.9334 102.544 5.56405e-05 0.00039596 -0.000156232
1460 4 77.4891 35.7236 102.981 0.421717 0.0083462 -0.243284
1461 3 78.9433 36.6365 101.314 0.000277056 -0.000178028 0.000728862
1691 4 81.2406 31.6977 106.233 1.00684 0.137481 -0.557892
1694 3 82.9744 33.1203 108.509 -0.0108953 0.23164 -0.46164
1692 2 82.5243 28.9261 105.167 -0.0100915 0.0237313 -0.471611
1731 4 80.8446 35.0474 106.549 0.581902 0.234835 -0.380218
1730 2 79.5779 38.1306 105.369 0.702151 0.150705 -0.225499
1733 1 83.7992 35.7104 108.906 0.102652 0.669883 -0.356803
1734 1 82.9805 36.7736 105.605 0.000719556 0.000186502 0.000670059
51 1 78.4847 38.682 74.2747 0.196301 0.111283 0.413068
53 1 78.2671 42.79 74.5547 0.0805085 0.901851 0.622866
57 5 80.9936 38.466 73.2594 0.828857 -0.201818 -0.00107007
58 2 79.8361 40.9001 73.8067 0.80872 0.19694 0.25861
60 1 82.6245 41.0872 73.9975 -1.00846 -0.0540584 1.07151
61 1 80.9855 39.2183 76.0395 0.00012345 -0.00012392 -0.000148218
62 3 81.7292 42.0066 76.4622 4.0897e-05 -3.72763e-05 0.000103194
59 3 83.7216 43.0979 75.4438 4.7028e-05 3.33622e-05 0.000402188
54 1 79.1225 41.2953 76.9258 0.000144936 -0.000300253 -4.22421e-05
56 3 77.7807 39.0939 77.2622 -4.14254e-05 -6.01656e-05 -3.8428e-06
63 2 84.0168 39.1828 77.4945 -5.02809e-07 -0.000153346 0.000213206
64 4 83.971 38.7925 74.8846 0.000501749 0.000458611 0.000303618
90 1 82.6824 44.4456 77.5346 -7.87827e-05 0.000303811 -0.000148776
88 1 83.6231 45.8998 75.1908 0.43532 0.36202 0.356675
83 5 79.0409 45.7224 74.6453 0.971812 0.493926 -2.20624
85 4 83.0713 43.6221 72.7032 1.23626 0.0522668 -0.445147
87 1 81.16 43.9325 74.3692 -0.0198187 -0.901339 1.24744
82 1 77.5956 45.5629 76.6903 -0.077578 -0.591311 0.737778
84 5 79.5214 47.9968 76.4833 -0.931412 -0.229456 0.34631
86 2 79.8531 43.8876 76.7435 -0.000136257 -0.000375841 -0.000230613
89 3 81.0703 45.9615 76.2086 -0.000273154 8.2161e-05 0.00020383
232 1 81.7468 40.3174 78.7259 -0.000202878 -0.000487324 7.70495e-05
233 3 83.0194 42.4352 80.608 -9.25027e-05 0.000243391 0.000330202
224 1 78.8081 40.9348 80.0542 0.000194851 -3.71717e-05 0.000359092
229 2 83.5966 41.6922 83.0028 -2.86575e-05 0.000597873 0.000391692
226 5 81.7896 40.0664 81.6022 -0.000310504 7.87143e-05 0.000102962
228 4 80.7155 42.6032 82.279 -0.000546271 1.52234e-05 1.49891e-05
265 1 80.8005 43.0687 79.2435 0.000332332 -0.000455107 -0.00030917
184 1 79.1398 38.7177 82.0384 -0.000434877 -0.000415053 0.000143549
495 5 77.987 41.6679 83.113 -0.000641852 2.58009e-05 -7.72563e-05
234 1 84.1927 41.9235 78.0475 -0.000737252 -0.000176974 0.000482775
223 2 78.2569 43.6224 81.341 2.56781e-05 0.000142994 -0.000277298
55 1 77.9275 43.589 78.7266 -9.80697e-06 -0.000388684 -5.41878e-05
273 1 83.3147 47.2587 81.0329 -0.000151998 9.86702e-05 -0.000280876
268 4 81.1115 45.217 81.0637 -7.49364e-05 -9.89572e-05 0.000249618
267 4 80.4594 47.47 82.4006 0.0003037 -1.42016e-05 0.000467186
266 2 78.3982 47.6133 78.7213 -0.232952 -1.22441 -0.112705
264 4 78.3251 46.3237 80.905 -0.000390818 9.89574e-05 0.000221149
263 2 80.1536 45.8299 78.5679 -0.000740144 -0.000558667 0.000280534
275 1 82.5066 47.4732 78.0872 -0.00032543 -4.80489e-05 3.64231e-05
269 1 83.5101 44.5789 82.6944 0.000356529 0.000455831 -8.10083e-05
498 4 79.8301 41.6038 86.816 -0.000294331 -0.00104121 0.000384861
499 4 82.3588 39.8821 84.5564 0.000477494 -0.000919528 -0.00108386
501 1 83.0019 41.4435 87.1727 -0.00045581 -0.00098962 -0.000502667
227 4 79.5777 39.9851 84.6506 0.0013279 0.000966575 -0.00111516
536 2 77.8322 42.9753 85.6624 -0.000207162 -0.000424243 0.000862187
546 1 81.5828 43.212 85.0115 -0.000218444 -0.000397399 0.00012913
500 4 80.7737 39.6128 88.5655 0.00081747 -0.000316658 0.0005598
496 1 77.3642 40.7413 88.1811 -0.000930184 0.000462504 0.000312329
502 1 81.3719 43.7013 88.3125 -0.000171954 -0.000918808 -0.000438743
550 1 82.0101 47.1811 87.2651 -0.000643002 -0.000948099 0.000442165
552 3 83.3114 44.7781 86.7226 -0.000323272 0.000245339 0.000589379
880 1 78.3114 43.8034 88.3659 -5.58701e-05 -0.000181466 0.000678863
548 1 81.8099 46.2053 84.4491 0.000323765 -0.00051192 0.000148978
547 5 79.8565 45.3668 86.4268 -0.000289232 -0.000803754 0.000217772
545 1 78.8908 44.7073 83.7141 -0.000849495 -0.000614325 0.000266197
544 2 78.9655 47.3419 84.6081 0.000209443 -0.000587261 0.000420014
824 1 79.064 39.5173 91.3326 -6.3708e-05 -0.000144764 0.000313486
828 3 79.6623 41.8066 89.6611 -0.000305165 -0.000597536 0.000257441
829 2 80.1154 39.6964 93.8434 -0.000761127 -0.000126076 0.000368969
830 1 80.2384 42.0863 92.3262 0.000547807 8.42967e-05 -0.000174565
831 1 82.0819 39.2451 91.4674 -0.000123976 0.000112291 0.000277771
832 2 82.2115 41.5726 89.9702 0.000354001 9.53493e-05 0.000164055
834 1 82.9397 41.2189 93.6686 0.000688211 -0.000345394 0.000372418
827 1 77.3041 42.0728 91.0311 -0.000203321 -0.000313681 0.000319483
783 2 83.139 38.3725 93.8779 -0.00102568 -0.000622721 0.000533454
833 1 82.8604 43.6167 91.6257 0.00111286 -0.00013726 0.000437239
1228 2 77.9294 43.4958 93.215 0.000564009 0.000337914 0.000256337
885 1 79.4751 46.4547 89.2367 -0.000349144 4.64795e-06 5.52483e-05
889 1 81.8105 48.1444 90.2204 0.000123387 -0.000583311 0.000316997
887 3 80.2755 44.2319 90.6951 0.00116958 0.000439754 0.000465668
886 4 79.5823 45.9665 92.6246 0.00031218 -0.000143034 0.00035987
892 1 82.6379 46.4088 92.6831 0.000130638 0.000342183 0.000222357
888 2 82.5106 45.6392 89.7536 -4.79618e-05 -0.000684143 -0.000306374
884 1 77.2389 47.4542 91.1589 0.000284203 -9.94104e-05 0.00014661
882 2 77.7879 44.7846 90.926 0.000687154 -0.000103737 0.000531503
1184 2 83.6885 41.8021 96.3523 -0.000991098 0.00144729 0.000545907
1178 1 78.9017 41.8136 95.1951 0.000700793 0.000376276 0.000134874
1179 1 78.7325 38.4922 96.0658 -0.00074595 -0.000343501 0.000589893
1180 1 78.8925 38.3848 99.3721 0.000167117 -0.000548484 0.000256574
1181 1 79.6162 40.8571 97.8458 -0.000678506 -0.000381116 0.000105765
1182 2 81.695 38.9741 98.8287 -0.000420565 -0.000551063 -3.97956e-05
1183 1 82.3532 42.0833 99.1036 -0.000367663 0.000119396 0.000557992
1187 1 81.7929 39.672 96.0998 -0.00055583 0.000258144 7.86064e-05
1230 4 81.3941 43.1462 96.5522 -0.000791352 0.000824766 0.00119063
1231 2 78.5687 47.266 96.6581 -0.000351098 0.000468765 -0.000230351
1233 4 82.4452 45.6709 97.666 3.69715e-05 0.00105095 -0.000155857
1232 1 81.0923 47.1513 95.3737 -0.000549197 0.000516316 -0.000239738
1239 3 83.8731 46.5124 95.5217 -0.000668421 -0.000311284 -0.000918765
1234 1 78.9252 44.767 95.6799 0.00026314 0.000581597 -0.000186516
1226 3 77.2604 45.2104 97.5862 0.000180959 -0.000521398 -1.09222e-05
1563 1 79.3555 43.7265 98.8354 -0.000448529 -0.000306991 0.000424675
1235 4 80.3853 46.4975 99.1292 -0.000185712 -0.000263544 -0.000324308
881 4 81.329 44.1774 94.1028 0.00122395 -0.000492315 0.000502965
1507 1 77.3798 38.7904 102.027 0.172892 0.178645 -0.617242
1509 1 77.96 41.3047 100.246 0.000156301 -0.000255134 0.000288362
1511 1 79.7803 43.1898 104.679 0.564381 -0.00659438 -0.913718
1512 2 79.3795 40.5358 103.571 0.139982 0.237388 -0.177334
1514 1 81.9114 39.4322 104.441 9.5264e-05 -9.70408e-05 0.000363685
1515 3 80.0317 38.7472 101.969 1.61416e-05 -4.91009e-05 0.000681872
1516 1 82.5909 39.0416 101.537 3.23071e-06 -0.000418 0.000107968
1517 1 81.6824 42.0717 102.404 -2.82701e-05 -0.00018679 0.000279741
1513 3 80.5148 40.617 100.47 4.10138e-05 -0.000343938 0.000246561
1519 3 84.1595 41.0093 100.821 -0.000167097 -0.000728281 -0.00024561
1566 3 81.5785 44.3206 100.379 -0.000888159 -9.68699e-05 0.000605424
1567 4 80.4872 47.7911 101.589 0.59988 0.183095 -0.327008
1569 1 83.6107 46.4068 100.603 0.000235344 -0.000601488 -0.000852407
1568 5 82.3551 47.4965 104.652 0.0868883 -0.27996 -0.0619328
1559 2 79.2851 43.5484 101.716 -3.62658e-05 9.31754e-05 0.000541796
1561 1 77.6384 45.7883 100.081 0.168979 -0.590125 0.71463
1562 1 79.5329 45.9198 103.382 -0.317387 -1.0423 -0.0947366
1564 1 82.1673 45.1279 102.835 0.000276098 0.000170734 8.33488e-05
1520 2 84.1805 43.7647 103.996 -4.34941e-05 -0.000251787 -6.27896e-05
1774 5 80.5317 40.8216 106.631 0.221655 0.316037 -0.26245
1775 1 82.2712 38.428 107.886 0.354645 0.259268 -0.210588
1778 1 83.4468 41.0662 109.181 0.720214 -0.456482 -0.431
1776 3 83.0921 40.6085 106.615 0.000431677 -0.000370731 -4.15148e-05
1777 2 82.3849 42.3153 105.068 0.000240468 2.38354e-05 0.000305331
1816 1 82.2821 43.4918 107.755 0.437527 -1.05002 -0.685719
1817 2 82.2127 44.7776 105.418 -0.220001 0.230547 0.369856
102 1 81.8678 48.3047 75.3514 1.5878 0.178495 -0.752608
103 2 81.5063 50.0154 77.4026 0.323928 0.145619 0.380121
298 2 81.1355 50.0607 82.1762 9.73238e-05 6.04344e-05 -4.71697e-05
304 1 81.7068 51.7656 79.6511 1.26292 -0.183051 0.232847
297 1 78.7864 50.2338 78.0636 1.4087 1.32497 -0.772138
300 1 79.2866 51.6468 80.8598 -0.511293 -0.165157 0.917283
305 1 84.2193 51.1033 78.3331 0.387252 -0.374434 1.39767
307 3 84.1146 53.0581 81.3628 0.608841 -0.052169 -0.298487
303 1 80.5839 48.7906 79.8861 -0.000121807 -0.000201113 -2.75544e-05
302 1 83.8511 50.2943 81.4067 -0.000254886 0.000121521 0.000441685
301 1 78.2833 49.3477 82.6937 5.51027e-05 -0.000322819 -5.06005e-05
325 3 79.3008 53.8008 82.8482 0.263052 -0.86544 0.269082
326 1 82.0804 53.3953 82.6743 -0.930927 -0.664098 0.498973
543 2 79.2842 48.1887 87.0025 -5.78157e-05 -0.00036616 5.74389e-05
585 1 77.258 51.5207 84.7244 -0.30746 0.156319 -0.942452
587 5 78.6088 50.9229 87.1845 0.000219703 -0.000232604 -1.09736e-05
588 5 81.0496 49.0587 85.0968 0.000355942 -0.00052985 0.000242497
590 1 80.1072 51.5927 84.2607 -0.000200231 -0.000214839 0.000146128
591 4 82.7948 51.3736 86.1204 7.83262e-05 -0.000164376 0.000428488
592 3 80.6669 52.4502 87.4667 4.35336e-05 -0.000424739 0.000127451
594 3 82.7057 50.9612 83.7252 -0.000327046 -0.000685142 0.000575593