LAMMPS (2 Aug 2023)
WARNING: Using I/O redirection is unreliable with parallel runs. Better to use the -in switch to read input files. (src/lammps.cpp:537)
OMP_NUM_THREADS environment is not set. Defaulting to 1 thread. (src/comm.cpp:98)
  using 1 OpenMP thread(s) per MPI task

            dimension 3
            units metal
            boundary s s s
            atom_style atomic
            timestep 0.001
            region myregion block 68.20034 114.37180000000001 16.759 59.9777 70.54970383954154 117.56062922636103  units box
            create_box 5 myregion
Created orthogonal box = (68.20034 16.759 70.549704) to (114.3718 59.9777 117.56063)
  6 by 4 by 8 MPI processor grid
            mass 1 91.224
            mass 2 63.546
            mass 3 58.693
            mass 4 26.982
            mass 5 47.867 
            pair_style eam/alloy
            pair_coeff * * ZrTiCuNiAl_Zhou04.eam.alloy Zr Cu Ni Al Ti
Reading eam/alloy potential file ZrTiCuNiAl_Zhou04.eam.alloy with DATE: 2018-03-30
            create_atoms 1 single 80.3283 27.9578 77.84769971346705
Created 1 atoms
  using lattice units in orthogonal box = (68.195723 16.754678 70.545003) to (114.37642 59.982022 117.56533)
  create_atoms CPU = 0.000 seconds
create_atoms 1 single 83.23294 27.4168 77.2768999426934
Created 1 atoms
  using lattice units in orthogonal box = (68.195723 16.754678 70.545003) to (114.37642 59.982022 117.56533)
  create_atoms CPU = 0.000 seconds
create_atoms 1 single 85.76458 28.0728 76.20319530085959
Created 1 atoms
  using lattice units in orthogonal box = (68.195723 16.754678 70.545003) to (114.37642 59.982022 117.56533)
  create_atoms CPU = 0.000 seconds
create_atoms 2 single 88.32672000000001 27.8478 75.54684137535816
Created 1 atoms
  using lattice units in orthogonal box = (68.195723 16.754678 70.545003) to (114.37642 59.982022 117.56533)
  create_atoms CPU = 0.000 seconds
create_atoms 1 single 88.82116 25.8319 77.89749661891118
Created 1 atoms
  using lattice units in orthogonal box = (68.195723 16.754678 70.545003) to (114.37642 59.982022 117.56533)
  create_atoms CPU = 0.000 seconds
create_atoms 2 single 91.15168 27.4889 77.54902796561605
Created 1 atoms
  using lattice units in orthogonal box = (68.195723 16.754678 70.545003) to (114.37642 59.982022 117.56533)
  create_atoms CPU = 0.000 seconds
create_atoms 3 single 76.76796 31.3167 77.82071724928366
Created 1 atoms
  using lattice units in orthogonal box = (68.195723 16.754678 70.545003) to (114.37642 59.982022 117.56533)
  create_atoms CPU = 0.000 seconds
create_atoms 2 single 78.32684 30.2157 76.46578074498566
Created 1 atoms
  using lattice units in orthogonal box = (68.195723 16.754678 70.545003) to (114.37642 59.982022 117.56533)
  create_atoms CPU = 0.000 seconds
create_atoms 3 single 78.58946 33.0285 75.03143243553009
Created 1 atoms
  using lattice units in orthogonal box = (68.195723 16.754678 70.545003) to (114.37642 59.982022 117.56533)
  create_atoms CPU = 0.000 seconds
create_atoms 3 single 80.96334 30.3521 77.08604836676217
Created 1 atoms
  using lattice units in orthogonal box = (68.195723 16.754678 70.545003) to (114.37642 59.982022 117.56533)
  create_atoms CPU = 0.000 seconds
create_atoms 1 single 83.46816 30.2683 76.43814017191977
Created 1 atoms
  using lattice units in orthogonal box = (68.195723 16.754678 70.545003) to (114.37642 59.982022 117.56533)
  create_atoms CPU = 0.000 seconds
create_atoms 1 single 81.11588 32.1646 75.1622864183381
Created 1 atoms
  using lattice units in orthogonal box = (68.195723 16.754678 70.545003) to (114.37642 59.982022 117.56533)
  create_atoms CPU = 0.000 seconds
create_atoms 3 single 84.30998 29.8351 74.14495977077364
Created 1 atoms
  using lattice units in orthogonal box = (68.195723 16.754678 70.545003) to (114.37642 59.982022 117.56533)
  create_atoms CPU = 0.000 seconds
create_atoms 1 single 84.32236 32.4499 74.79506166189111
Created 1 atoms
  using lattice units in orthogonal box = (68.195723 16.754678 70.545003) to (114.37642 59.982022 117.56533)
  create_atoms CPU = 0.000 seconds
create_atoms 1 single 87.14064 30.535 75.0042306017192
Created 1 atoms
  using lattice units in orthogonal box = (68.195723 16.754678 70.545003) to (114.37642 59.982022 117.56533)
  create_atoms CPU = 0.000 seconds
create_atoms 3 single 87.05856 33.2428 75.30235392550144
Created 1 atoms
  using lattice units in orthogonal box = (68.195723 16.754678 70.545003) to (114.37642 59.982022 117.56533)
  create_atoms CPU = 0.000 seconds
create_atoms 2 single 86.34262000000001 30.8024 77.26669925501432
Created 1 atoms
  using lattice units in orthogonal box = (68.195723 16.754678 70.545003) to (114.37642 59.982022 117.56533)
  create_atoms CPU = 0.000 seconds
create_atoms 1 single 88.8896 32.0486 77.82411747851002
Created 1 atoms
  using lattice units in orthogonal box = (68.195723 16.754678 70.545003) to (114.37642 59.982022 117.56533)
  create_atoms CPU = 0.000 seconds
create_atoms 1 single 90.35430000000001 30.0396 76.37134212034384
Created 1 atoms
  using lattice units in orthogonal box = (68.195723 16.754678 70.545003) to (114.37642 59.982022 117.56533)
  create_atoms CPU = 0.000 seconds
create_atoms 1 single 93.06264 31.6316 76.05062372492836
Created 1 atoms
  using lattice units in orthogonal box = (68.195723 16.754678 70.545003) to (114.37642 59.982022 117.56533)
  create_atoms CPU = 0.000 seconds
create_atoms 1 single 89.7608 32.9053 75.18235873925501
Created 1 atoms
  using lattice units in orthogonal box = (68.195723 16.754678 70.545003) to (114.37642 59.982022 117.56533)
  create_atoms CPU = 0.000 seconds
create_atoms 1 single 95.59882 33.4065 76.46709696275072
Created 1 atoms
  using lattice units in orthogonal box = (68.195723 16.754678 70.545003) to (114.37642 59.982022 117.56533)
  create_atoms CPU = 0.000 seconds
create_atoms 4 single 74.42924000000001 36.0718 75.94093891117478
Created 1 atoms
  using lattice units in orthogonal box = (68.195723 16.754678 70.545003) to (114.37642 59.982022 117.56533)
  create_atoms CPU = 0.000 seconds
create_atoms 5 single 78.47382 35.6346 74.13190727793695
Created 1 atoms
  using lattice units in orthogonal box = (68.195723 16.754678 70.545003) to (114.37642 59.982022 117.56533)
  create_atoms CPU = 0.000 seconds
create_atoms 1 single 77.41246 34.7897 76.35148916905443
Created 1 atoms
  using lattice units in orthogonal box = (68.195723 16.754678 70.545003) to (114.37642 59.982022 117.56533)
  create_atoms CPU = 0.000 seconds
create_atoms 2 single 76.59936 37.6213 75.5080129512894
Created 1 atoms
  using lattice units in orthogonal box = (68.195723 16.754678 70.545003) to (114.37642 59.982022 117.56533)
  create_atoms CPU = 0.000 seconds
create_atoms 1 single 79.51388 37.3655 77.21558613180515
Created 1 atoms
  using lattice units in orthogonal box = (68.195723 16.754678 70.545003) to (114.37642 59.982022 117.56533)
  create_atoms CPU = 0.000 seconds
create_atoms 2 single 83.48258 33.6035 76.81688183381088
Created 1 atoms
  using lattice units in orthogonal box = (68.195723 16.754678 70.545003) to (114.37642 59.982022 117.56533)
  create_atoms CPU = 0.000 seconds
create_atoms 1 single 80.93531999999999 34.6329 76.93270899713465
Created 1 atoms
  using lattice units in orthogonal box = (68.195723 16.754678 70.545003) to (114.37642 59.982022 117.56533)
  create_atoms CPU = 0.000 seconds
create_atoms 3 single 80.8081 36.8803 75.3106899713467
Created 1 atoms
  using lattice units in orthogonal box = (68.195723 16.754678 70.545003) to (114.37642 59.982022 117.56533)
  create_atoms CPU = 0.000 seconds
create_atoms 1 single 81.7863 34.8223 74.19355014326646
Created 1 atoms
  using lattice units in orthogonal box = (68.195723 16.754678 70.545003) to (114.37642 59.982022 117.56533)
  create_atoms CPU = 0.000 seconds
create_atoms 1 single 83.57248 36.4868 76.89311277936963
Created 1 atoms
  using lattice units in orthogonal box = (68.195723 16.754678 70.545003) to (114.37642 59.982022 117.56533)
  create_atoms CPU = 0.000 seconds
create_atoms 4 single 82.98125999999999 36.7337 72.79057169054441
Created 1 atoms
  using lattice units in orthogonal box = (68.195723 16.754678 70.545003) to (114.37642 59.982022 117.56533)
  create_atoms CPU = 0.000 seconds
create_atoms 1 single 85.23296 35.3785 75.21350922636103
Created 1 atoms
  using lattice units in orthogonal box = (68.195723 16.754678 70.545003) to (114.37642 59.982022 117.56533)
  create_atoms CPU = 0.000 seconds
create_atoms 4 single 85.73053999999999 37.7225 73.2745010888252
Created 1 atoms
  using lattice units in orthogonal box = (68.195723 16.754678 70.545003) to (114.37642 59.982022 117.56533)
  create_atoms CPU = 0.000 seconds
create_atoms 2 single 86.13436 33.5034 77.47027426934098
Created 1 atoms
  using lattice units in orthogonal box = (68.195723 16.754678 70.545003) to (114.37642 59.982022 117.56533)
  create_atoms CPU = 0.000 seconds
create_atoms 4 single 87.31158 37.7329 76.28436206303724
Created 1 atoms
  using lattice units in orthogonal box = (68.195723 16.754678 70.545003) to (114.37642 59.982022 117.56533)
  create_atoms CPU = 0.000 seconds
create_atoms 1 single 87.90554 35.5437 74.29731197707736
Created 1 atoms
  using lattice units in orthogonal box = (68.195723 16.754678 70.545003) to (114.37642 59.982022 117.56533)
  create_atoms CPU = 0.000 seconds
create_atoms 1 single 88.39848 35.0831 77.47773283667622
Created 1 atoms
  using lattice units in orthogonal box = (68.195723 16.754678 70.545003) to (114.37642 59.982022 117.56533)
  create_atoms CPU = 0.000 seconds
create_atoms 4 single 90.40894 36.6066 73.56406899713467
Created 1 atoms
  using lattice units in orthogonal box = (68.195723 16.754678 70.545003) to (114.37642 59.982022 117.56533)
  create_atoms CPU = 0.000 seconds
create_atoms 3 single 93.50708 34.2512 77.49637925501432
Created 1 atoms
  using lattice units in orthogonal box = (68.195723 16.754678 70.545003) to (114.37642 59.982022 117.56533)
  create_atoms CPU = 0.000 seconds
create_atoms 1 single 92.31086 34.2668 74.57843415472779
Created 1 atoms
  using lattice units in orthogonal box = (68.195723 16.754678 70.545003) to (114.37642 59.982022 117.56533)
  create_atoms CPU = 0.000 seconds
create_atoms 1 single 90.99872 35.5101 76.65465799426934
Created 1 atoms
  using lattice units in orthogonal box = (68.195723 16.754678 70.545003) to (114.37642 59.982022 117.56533)
  create_atoms CPU = 0.000 seconds
create_atoms 1 single 93.89016 36.6853 76.29554991404011
Created 1 atoms
  using lattice units in orthogonal box = (68.195723 16.754678 70.545003) to (114.37642 59.982022 117.56533)
  create_atoms CPU = 0.000 seconds
create_atoms 4 single 89.85276 38.1028 75.59082498567335
Created 1 atoms
  using lattice units in orthogonal box = (68.195723 16.754678 70.545003) to (114.37642 59.982022 117.56533)
  create_atoms CPU = 0.000 seconds
create_atoms 2 single 97.11166 37.1609 77.47082269340973
Created 1 atoms
  using lattice units in orthogonal box = (68.195723 16.754678 70.545003) to (114.37642 59.982022 117.56533)
  create_atoms CPU = 0.000 seconds
create_atoms 1 single 98.56392 34.6253 77.85186773638968
Created 1 atoms
  using lattice units in orthogonal box = (68.195723 16.754678 70.545003) to (114.37642 59.982022 117.56533)
  create_atoms CPU = 0.000 seconds
create_atoms 4 single 71.96062 39.5491 77.35444710601719
Created 1 atoms
  using lattice units in orthogonal box = (68.195723 16.754678 70.545003) to (114.37642 59.982022 117.56533)
  create_atoms CPU = 0.000 seconds
create_atoms 1 single 74.80896 38.8895 76.93281868194842
Created 1 atoms
  using lattice units in orthogonal box = (68.195723 16.754678 70.545003) to (114.37642 59.982022 117.56533)
  create_atoms CPU = 0.000 seconds
create_atoms 4 single 73.71284 41.527 75.7166334670487
Created 1 atoms
  using lattice units in orthogonal box = (68.195723 16.754678 70.545003) to (114.37642 59.982022 117.56533)
  create_atoms CPU = 0.000 seconds
create_atoms 1 single 78.4847 38.682 74.27471690544412
Created 1 atoms
  using lattice units in orthogonal box = (68.195723 16.754678 70.545003) to (114.37642 59.982022 117.56533)
  create_atoms CPU = 0.000 seconds
create_atoms 1 single 76.39664 40.5321 75.24773088825215
Created 1 atoms
  using lattice units in orthogonal box = (68.195723 16.754678 70.545003) to (114.37642 59.982022 117.56533)
  create_atoms CPU = 0.000 seconds
create_atoms 1 single 78.26712 42.79 74.55474223495702
Created 1 atoms
  using lattice units in orthogonal box = (68.195723 16.754678 70.545003) to (114.37642 59.982022 117.56533)
  create_atoms CPU = 0.000 seconds
create_atoms 1 single 79.5764 40.5537 76.8726017191977
Created 1 atoms
  using lattice units in orthogonal box = (68.195723 16.754678 70.545003) to (114.37642 59.982022 117.56533)
  create_atoms CPU = 0.000 seconds
create_atoms 1 single 78.07958 42.7909 77.57425547277937
Created 1 atoms
  using lattice units in orthogonal box = (68.195723 16.754678 70.545003) to (114.37642 59.982022 117.56533)
  create_atoms CPU = 0.000 seconds
create_atoms 3 single 77.79334 39.1275 77.8340987965616
Created 1 atoms
  using lattice units in orthogonal box = (68.195723 16.754678 70.545003) to (114.37642 59.982022 117.56533)
  create_atoms CPU = 0.000 seconds
create_atoms 5 single 80.99362 38.466 73.25936458452722
Created 1 atoms
  using lattice units in orthogonal box = (68.195723 16.754678 70.545003) to (114.37642 59.982022 117.56533)
  create_atoms CPU = 0.000 seconds
create_atoms 2 single 79.83612000000001 40.9001 73.80669180515758
Created 1 atoms
  using lattice units in orthogonal box = (68.195723 16.754678 70.545003) to (114.37642 59.982022 117.56533)
  create_atoms CPU = 0.000 seconds
create_atoms 3 single 84.00644000000001 43.2042 75.6793406303725
Created 1 atoms
  using lattice units in orthogonal box = (68.195723 16.754678 70.545003) to (114.37642 59.982022 117.56533)
  create_atoms CPU = 0.000 seconds
create_atoms 1 single 82.62452 41.0872 73.99754338108883
Created 1 atoms
  using lattice units in orthogonal box = (68.195723 16.754678 70.545003) to (114.37642 59.982022 117.56533)
  create_atoms CPU = 0.000 seconds
create_atoms 1 single 81.90164 39.2016 76.3286747277937
Created 1 atoms
  using lattice units in orthogonal box = (68.195723 16.754678 70.545003) to (114.37642 59.982022 117.56533)
  create_atoms CPU = 0.000 seconds
create_atoms 3 single 81.5326 41.9469 76.08341948424068
Created 1 atoms
  using lattice units in orthogonal box = (68.195723 16.754678 70.545003) to (114.37642 59.982022 117.56533)
  create_atoms CPU = 0.000 seconds
create_atoms 2 single 84.01706 41.0639 76.92185020057308
Created 1 atoms
  using lattice units in orthogonal box = (68.195723 16.754678 70.545003) to (114.37642 59.982022 117.56533)
  create_atoms CPU = 0.000 seconds
create_atoms 4 single 84.26952 38.6074 75.08397146131806
Created 1 atoms
  using lattice units in orthogonal box = (68.195723 16.754678 70.545003) to (114.37642 59.982022 117.56533)
  create_atoms CPU = 0.000 seconds
create_atoms 4 single 86.22785999999999 39.4083 77.83991209169054
Created 1 atoms
  using lattice units in orthogonal box = (68.195723 16.754678 70.545003) to (114.37642 59.982022 117.56533)
  create_atoms CPU = 0.000 seconds
create_atoms 4 single 84.88554 41.0732 72.6492976504298
Created 1 atoms
  using lattice units in orthogonal box = (68.195723 16.754678 70.545003) to (114.37642 59.982022 117.56533)
  create_atoms CPU = 0.000 seconds
create_atoms 1 single 87.9749 42.5969 73.4685335243553
Created 1 atoms
  using lattice units in orthogonal box = (68.195723 16.754678 70.545003) to (114.37642 59.982022 117.56533)
  create_atoms CPU = 0.000 seconds
create_atoms 1 single 86.07672000000001 41.3441 75.68723793696275
Created 1 atoms
  using lattice units in orthogonal box = (68.195723 16.754678 70.545003) to (114.37642 59.982022 117.56533)
  create_atoms CPU = 0.000 seconds
create_atoms 4 single 87.7431 39.7797 74.00708595988537
Created 1 atoms
  using lattice units in orthogonal box = (68.195723 16.754678 70.545003) to (114.37642 59.982022 117.56533)
  create_atoms CPU = 0.000 seconds
create_atoms 1 single 88.87684 42.876 76.71311999999999
Created 1 atoms
  using lattice units in orthogonal box = (68.195723 16.754678 70.545003) to (114.37642 59.982022 117.56533)
  create_atoms CPU = 0.000 seconds
create_atoms 4 single 89.1152 39.9309 77.31463151862464
Created 1 atoms
  using lattice units in orthogonal box = (68.195723 16.754678 70.545003) to (114.37642 59.982022 117.56533)
  create_atoms CPU = 0.000 seconds
create_atoms 4 single 90.12052 40.8507 72.54970383954154
Created 1 atoms
  using lattice units in orthogonal box = (68.195723 16.754678 70.545003) to (114.37642 59.982022 117.56533)
  create_atoms CPU = 0.000 seconds
create_atoms 1 single 90.7402 41.115 75.5635134670487
Created 1 atoms
  using lattice units in orthogonal box = (68.195723 16.754678 70.545003) to (114.37642 59.982022 117.56533)
  create_atoms CPU = 0.000 seconds
create_atoms 5 single 92.23264 38.9926 74.67901512893982
Created 1 atoms
  using lattice units in orthogonal box = (68.195723 16.754678 70.545003) to (114.37642 59.982022 117.56533)
  create_atoms CPU = 0.000 seconds
create_atoms 1 single 93.30328 41.7899 74.55901994269341
Created 1 atoms
  using lattice units in orthogonal box = (68.195723 16.754678 70.545003) to (114.37642 59.982022 117.56533)
  create_atoms CPU = 0.000 seconds
create_atoms 4 single 92.33478000000001 38.8857 77.85011277936962
Created 1 atoms
  using lattice units in orthogonal box = (68.195723 16.754678 70.545003) to (114.37642 59.982022 117.56533)
  create_atoms CPU = 0.000 seconds
create_atoms 1 single 93.9425 41.2555 77.66671977077362
Created 1 atoms
  using lattice units in orthogonal box = (68.195723 16.754678 70.545003) to (114.37642 59.982022 117.56533)
  create_atoms CPU = 0.000 seconds
create_atoms 1 single 95.3602 39.4288 75.98525157593123
Created 1 atoms
  using lattice units in orthogonal box = (68.195723 16.754678 70.545003) to (114.37642 59.982022 117.56533)
  create_atoms CPU = 0.000 seconds
create_atoms 5 single 96.46256 42.1786 76.93610922636103
Created 1 atoms
  using lattice units in orthogonal box = (68.195723 16.754678 70.545003) to (114.37642 59.982022 117.56533)
  create_atoms CPU = 0.000 seconds
create_atoms 1 single 75.18773999999999 43.697 77.64544091690543
Created 1 atoms
  using lattice units in orthogonal box = (68.195723 16.754678 70.545003) to (114.37642 59.982022 117.56533)
  create_atoms CPU = 0.000 seconds
create_atoms 3 single 75.80164 43.3492 75.13475553008597
Created 1 atoms
  using lattice units in orthogonal box = (68.195723 16.754678 70.545003) to (114.37642 59.982022 117.56533)
  create_atoms CPU = 0.000 seconds
create_atoms 1 single 77.59562000000001 45.5629 76.69030555873925
Created 1 atoms
  using lattice units in orthogonal box = (68.195723 16.754678 70.545003) to (114.37642 59.982022 117.56533)
  create_atoms CPU = 0.000 seconds
create_atoms 5 single 79.04086 45.7224 74.64534189111748
Created 1 atoms
  using lattice units in orthogonal box = (68.195723 16.754678 70.545003) to (114.37642 59.982022 117.56533)
  create_atoms CPU = 0.000 seconds
create_atoms 5 single 79.52144 47.9968 76.48333031518624
Created 1 atoms
  using lattice units in orthogonal box = (68.195723 16.754678 70.545003) to (114.37642 59.982022 117.56533)
  create_atoms CPU = 0.000 seconds
create_atoms 4 single 83.07128 43.6221 72.7031528939828
Created 1 atoms
  using lattice units in orthogonal box = (68.195723 16.754678 70.545003) to (114.37642 59.982022 117.56533)
  create_atoms CPU = 0.000 seconds
create_atoms 2 single 80.3479 43.8363 76.86985959885386
Created 1 atoms
  using lattice units in orthogonal box = (68.195723 16.754678 70.545003) to (114.37642 59.982022 117.56533)
  create_atoms CPU = 0.000 seconds
create_atoms 1 single 81.16004000000001 43.9325 74.36915553008595
Created 1 atoms
  using lattice units in orthogonal box = (68.195723 16.754678 70.545003) to (114.37642 59.982022 117.56533)
  create_atoms CPU = 0.000 seconds
create_atoms 1 single 83.62308 45.8998 75.19080446991403
Created 1 atoms
  using lattice units in orthogonal box = (68.195723 16.754678 70.545003) to (114.37642 59.982022 117.56533)
  create_atoms CPU = 0.000 seconds
create_atoms 3 single 81.67862000000001 46.0351 76.53674681948424
Created 1 atoms
  using lattice units in orthogonal box = (68.195723 16.754678 70.545003) to (114.37642 59.982022 117.56533)
  create_atoms CPU = 0.000 seconds
create_atoms 1 single 83.30264 44.0658 77.9075876217765
Created 1 atoms
  using lattice units in orthogonal box = (68.195723 16.754678 70.545003) to (114.37642 59.982022 117.56533)
  create_atoms CPU = 0.000 seconds
create_atoms 1 single 86.00064 44.2055 74.54410280802293
Created 1 atoms
  using lattice units in orthogonal box = (68.195723 16.754678 70.545003) to (114.37642 59.982022 117.56533)
  create_atoms CPU = 0.000 seconds
create_atoms 2 single 88.86568 45.3817 77.83311163323782
Created 1 atoms
  using lattice units in orthogonal box = (68.195723 16.754678 70.545003) to (114.37642 59.982022 117.56533)
  create_atoms CPU = 0.000 seconds
create_atoms 1 single 86.74824 46.8319 76.13508103151862
Created 1 atoms
  using lattice units in orthogonal box = (68.195723 16.754678 70.545003) to (114.37642 59.982022 117.56533)
  create_atoms CPU = 0.000 seconds
create_atoms 1 single 89.05496000000001 45.3681 75.09450120343838
Created 1 atoms
  using lattice units in orthogonal box = (68.195723 16.754678 70.545003) to (114.37642 59.982022 117.56533)
  create_atoms CPU = 0.000 seconds
create_atoms 2 single 89.59524 47.7642 76.5847887679083
Created 1 atoms
  using lattice units in orthogonal box = (68.195723 16.754678 70.545003) to (114.37642 59.982022 117.56533)
  create_atoms CPU = 0.000 seconds
create_atoms 1 single 86.5169 43.9939 77.81040687679082
Created 1 atoms
  using lattice units in orthogonal box = (68.195723 16.754678 70.545003) to (114.37642 59.982022 117.56533)
  create_atoms CPU = 0.000 seconds
create_atoms 1 single 90.89884 43.7017 73.81908618911174
Created 1 atoms
  using lattice units in orthogonal box = (68.195723 16.754678 70.545003) to (114.37642 59.982022 117.56533)
  create_atoms CPU = 0.000 seconds
create_atoms 2 single 91.45938 43.6098 76.67648527220629
Created 1 atoms
  using lattice units in orthogonal box = (68.195723 16.754678 70.545003) to (114.37642 59.982022 117.56533)
  create_atoms CPU = 0.000 seconds
create_atoms 2 single 93.9681 43.8652 76.60497077363895
Created 1 atoms
  using lattice units in orthogonal box = (68.195723 16.754678 70.545003) to (114.37642 59.982022 117.56533)
  create_atoms CPU = 0.000 seconds
create_atoms 1 single 92.06716 46.1428 75.72025306590258
Created 1 atoms
  using lattice units in orthogonal box = (68.195723 16.754678 70.545003) to (114.37642 59.982022 117.56533)
  create_atoms CPU = 0.000 seconds
create_atoms 4 single 97.11468 45.2181 77.6899729512894
Created 1 atoms
  using lattice units in orthogonal box = (68.195723 16.754678 70.545003) to (114.37642 59.982022 117.56533)
  create_atoms CPU = 0.000 seconds
create_atoms 1 single 81.86784 48.3047 75.35138303724928
Created 1 atoms
  using lattice units in orthogonal box = (68.195723 16.754678 70.545003) to (114.37642 59.982022 117.56533)
  create_atoms CPU = 0.000 seconds
create_atoms 2 single 81.50628 50.0154 77.40259873925501
Created 1 atoms
  using lattice units in orthogonal box = (68.195723 16.754678 70.545003) to (114.37642 59.982022 117.56533)
  create_atoms CPU = 0.000 seconds
create_atoms 1 single 85.02538 48.9366 76.78342796561604
Created 1 atoms
  using lattice units in orthogonal box = (68.195723 16.754678 70.545003) to (114.37642 59.982022 117.56533)
  create_atoms CPU = 0.000 seconds
create_atoms 2 single 87.16246000000001 22.6264 82.70553042979942
Created 1 atoms
  using lattice units in orthogonal box = (68.195723 16.754678 70.545003) to (114.37642 59.982022 117.56533)
  create_atoms CPU = 0.000 seconds
create_atoms 1 single 89.64066 23.4217 82.40225191977078
Created 1 atoms
  using lattice units in orthogonal box = (68.195723 16.754678 70.545003) to (114.37642 59.982022 117.56533)
  create_atoms CPU = 0.000 seconds
create_atoms 1 single 75.44446 26.8078 81.73043243553009
Created 1 atoms
  using lattice units in orthogonal box = (68.195723 16.754678 70.545003) to (114.37642 59.982022 117.56533)
  create_atoms CPU = 0.000 seconds
create_atoms 3 single 77.56402 25.184 81.35410383954154
Created 1 atoms
  using lattice units in orthogonal box = (68.195723 16.754678 70.545003) to (114.37642 59.982022 117.56533)
  create_atoms CPU = 0.000 seconds
create_atoms 3 single 77.54034 27.7613 81.023184756447
Created 1 atoms
  using lattice units in orthogonal box = (68.195723 16.754678 70.545003) to (114.37642 59.982022 117.56533)
  create_atoms CPU = 0.000 seconds
create_atoms 1 single 79.73816 26.4182 80.5304805730659
Created 1 atoms
  using lattice units in orthogonal box = (68.195723 16.754678 70.545003) to (114.37642 59.982022 117.56533)
  create_atoms CPU = 0.000 seconds
create_atoms 1 single 80.30418 23.9642 82.79909157593123
Created 1 atoms
  using lattice units in orthogonal box = (68.195723 16.754678 70.545003) to (114.37642 59.982022 117.56533)
  create_atoms CPU = 0.000 seconds
create_atoms 2 single 85.5527 24.263 83.28587277936963
Created 1 atoms
  using lattice units in orthogonal box = (68.195723 16.754678 70.545003) to (114.37642 59.982022 117.56533)
  create_atoms CPU = 0.000 seconds
create_atoms 1 single 82.10288 25.5922 79.01551392550144
Created 1 atoms
  using lattice units in orthogonal box = (68.195723 16.754678 70.545003) to (114.37642 59.982022 117.56533)
  create_atoms CPU = 0.000 seconds
create_atoms 3 single 82.09518 27.8257 80.8000858452722
Created 1 atoms
  using lattice units in orthogonal box = (68.195723 16.754678 70.545003) to (114.37642 59.982022 117.56533)
  create_atoms CPU = 0.000 seconds
create_atoms 4 single 84.8307 24.0573 80.28050888252147
Created 1 atoms
  using lattice units in orthogonal box = (68.195723 16.754678 70.545003) to (114.37642 59.982022 117.56533)
  create_atoms CPU = 0.000 seconds
create_atoms 1 single 82.7603 25.1262 82.09743782234956
Created 1 atoms
  using lattice units in orthogonal box = (68.195723 16.754678 70.545003) to (114.37642 59.982022 117.56533)
  create_atoms CPU = 0.000 seconds
create_atoms 1 single 84.83384 27.1441 80.76871598853869
Created 1 atoms
  using lattice units in orthogonal box = (68.195723 16.754678 70.545003) to (114.37642 59.982022 117.56533)
  create_atoms CPU = 0.000 seconds
create_atoms 3 single 87.94726 23.8627 79.54112355300859
Created 1 atoms
  using lattice units in orthogonal box = (68.195723 16.754678 70.545003) to (114.37642 59.982022 117.56533)
  create_atoms CPU = 0.000 seconds
create_atoms 1 single 86.20902000000001 26.0614 78.66408378223495
Created 1 atoms
  using lattice units in orthogonal box = (68.195723 16.754678 70.545003) to (114.37642 59.982022 117.56533)
  create_atoms CPU = 0.000 seconds
create_atoms 4 single 87.26952000000001 25.3373 81.96943564469915
Created 1 atoms
  using lattice units in orthogonal box = (68.195723 16.754678 70.545003) to (114.37642 59.982022 117.56533)
  create_atoms CPU = 0.000 seconds
create_atoms 1 single 90.98128 23.996 80.19462567335242
Created 1 atoms
  using lattice units in orthogonal box = (68.195723 16.754678 70.545003) to (114.37642 59.982022 117.56533)
  create_atoms CPU = 0.000 seconds
create_atoms 3 single 89.29922 25.8244 80.84736
Created 1 atoms
  using lattice units in orthogonal box = (68.195723 16.754678 70.545003) to (114.37642 59.982022 117.56533)
  create_atoms CPU = 0.000 seconds
create_atoms 4 single 87.89958 27.9109 80.87960733524355
Created 1 atoms
  using lattice units in orthogonal box = (68.195723 16.754678 70.545003) to (114.37642 59.982022 117.56533)
  create_atoms CPU = 0.000 seconds
create_atoms 2 single 91.97174000000001 25.1436 82.92950681948425
Created 1 atoms
  using lattice units in orthogonal box = (68.195723 16.754678 70.545003) to (114.37642 59.982022 117.56533)
  create_atoms CPU = 0.000 seconds
create_atoms 1 single 91.45126 26.9524 80.34346796561603
Created 1 atoms
  using lattice units in orthogonal box = (68.195723 16.754678 70.545003) to (114.37642 59.982022 117.56533)
  create_atoms CPU = 0.000 seconds
create_atoms 1 single 94.11576000000001 26.6698 79.24113558739255
Created 1 atoms
  using lattice units in orthogonal box = (68.195723 16.754678 70.545003) to (114.37642 59.982022 117.56533)
  create_atoms CPU = 0.000 seconds
create_atoms 1 single 94.07446 25.0994 81.77156424068768
Created 1 atoms
  using lattice units in orthogonal box = (68.195723 16.754678 70.545003) to (114.37642 59.982022 117.56533)
  create_atoms CPU = 0.000 seconds
create_atoms 3 single 93.7699 28.4522 81.00333180515759
Created 1 atoms
  using lattice units in orthogonal box = (68.195723 16.754678 70.545003) to (114.37642 59.982022 117.56533)
  create_atoms CPU = 0.000 seconds
create_atoms 1 single 96.99482 26.5229 81.84384653295129
Created 1 atoms
  using lattice units in orthogonal box = (68.195723 16.754678 70.545003) to (114.37642 59.982022 117.56533)
  create_atoms CPU = 0.000 seconds
create_atoms 3 single 99.89304000000001 27.065 82.84669478510028
Created 1 atoms
  using lattice units in orthogonal box = (68.195723 16.754678 70.545003) to (114.37642 59.982022 117.56533)
  create_atoms CPU = 0.000 seconds
create_atoms 5 single 71.61176 30.2144 83.18046567335243
Created 1 atoms
  using lattice units in orthogonal box = (68.195723 16.754678 70.545003) to (114.37642 59.982022 117.56533)
  create_atoms CPU = 0.000 seconds
create_atoms 1 single 75.22236000000001 29.3477 80.03251151862464
Created 1 atoms
  using lattice units in orthogonal box = (68.195723 16.754678 70.545003) to (114.37642 59.982022 117.56533)
  create_atoms CPU = 0.000 seconds
create_atoms 1 single 74.86934 32.2291 79.47388676217764
Created 1 atoms
  using lattice units in orthogonal box = (68.195723 16.754678 70.545003) to (114.37642 59.982022 117.56533)
  create_atoms CPU = 0.000 seconds
create_atoms 1 single 74.2043 29.3183 82.68370315186246
Created 1 atoms
  using lattice units in orthogonal box = (68.195723 16.754678 70.545003) to (114.37642 59.982022 117.56533)
  create_atoms CPU = 0.000 seconds
create_atoms 2 single 75.8222 31.5057 82.51753065902578
Created 1 atoms
  using lattice units in orthogonal box = (68.195723 16.754678 70.545003) to (114.37642 59.982022 117.56533)
  create_atoms CPU = 0.000 seconds
create_atoms 1 single 72.91392 32.2351 81.8027147277937
Created 1 atoms
  using lattice units in orthogonal box = (68.195723 16.754678 70.545003) to (114.37642 59.982022 117.56533)
  create_atoms CPU = 0.000 seconds
create_atoms 1 single 77.80712000000001 28.7317 78.66189008595988
Created 1 atoms
  using lattice units in orthogonal box = (68.195723 16.754678 70.545003) to (114.37642 59.982022 117.56533)
  create_atoms CPU = 0.000 seconds
create_atoms 1 single 80.67254000000001 30.2662 79.95979048710602
Created 1 atoms
  using lattice units in orthogonal box = (68.195723 16.754678 70.545003) to (114.37642 59.982022 117.56533)
  create_atoms CPU = 0.000 seconds
create_atoms 1 single 77.92224 30.9282 80.74458532951289
Created 1 atoms
  using lattice units in orthogonal box = (68.195723 16.754678 70.545003) to (114.37642 59.982022 117.56533)
  create_atoms CPU = 0.000 seconds
create_atoms 1 single 79.48902 32.4981 77.94016401146132
Created 1 atoms
  using lattice units in orthogonal box = (68.195723 16.754678 70.545003) to (114.37642 59.982022 117.56533)
  create_atoms CPU = 0.000 seconds
create_atoms 3 single 79.82509999999999 28.9009 81.86051862464183
Created 1 atoms
  using lattice units in orthogonal box = (68.195723 16.754678 70.545003) to (114.37642 59.982022 117.56533)
  create_atoms CPU = 0.000 seconds
create_atoms 1 single 80.31302 33.0406 81.20328722063036
Created 1 atoms
  using lattice units in orthogonal box = (68.195723 16.754678 70.545003) to (114.37642 59.982022 117.56533)
  create_atoms CPU = 0.000 seconds
create_atoms 1 single 82.09506 30.6003 83.259438739255
Created 1 atoms
  using lattice units in orthogonal box = (68.195723 16.754678 70.545003) to (114.37642 59.982022 117.56533)
  create_atoms CPU = 0.000 seconds
create_atoms 1 single 83.28664 29.6144 79.42068962750716
Created 1 atoms
  using lattice units in orthogonal box = (68.195723 16.754678 70.545003) to (114.37642 59.982022 117.56533)
  create_atoms CPU = 0.000 seconds
create_atoms 2 single 82.38586000000001 32.2711 78.40917627507163
Created 1 atoms
  using lattice units in orthogonal box = (68.195723 16.754678 70.545003) to (114.37642 59.982022 117.56533)
  create_atoms CPU = 0.000 seconds
create_atoms 1 single 85.2229 31.798 79.14472263610314
Created 1 atoms
  using lattice units in orthogonal box = (68.195723 16.754678 70.545003) to (114.37642 59.982022 117.56533)
  create_atoms CPU = 0.000 seconds
create_atoms 2 single 84.12599999999999 29.2523 82.39632893982807
Created 1 atoms
  using lattice units in orthogonal box = (68.195723 16.754678 70.545003) to (114.37642 59.982022 117.56533)
  create_atoms CPU = 0.000 seconds
create_atoms 1 single 83.71326 31.998 81.5883906017192
Created 1 atoms
  using lattice units in orthogonal box = (68.195723 16.754678 70.545003) to (114.37642 59.982022 117.56533)
  create_atoms CPU = 0.000 seconds
create_atoms 1 single 86.72864 32.9023 82.29223805157592
Created 1 atoms
  using lattice units in orthogonal box = (68.195723 16.754678 70.545003) to (114.37642 59.982022 117.56533)
  create_atoms CPU = 0.000 seconds
create_atoms 2 single 86.12888000000001 30.0268 81.49110017191977
Created 1 atoms
  using lattice units in orthogonal box = (68.195723 16.754678 70.545003) to (114.37642 59.982022 117.56533)
  create_atoms CPU = 0.000 seconds
create_atoms 2 single 85.74502 28.9799 78.85767747851003
Created 1 atoms
  using lattice units in orthogonal box = (68.195723 16.754678 70.545003) to (114.37642 59.982022 117.56533)
  create_atoms CPU = 0.000 seconds
create_atoms 1 single 88.6638 28.7673 78.29521375358166
Created 1 atoms
  using lattice units in orthogonal box = (68.195723 16.754678 70.545003) to (114.37642 59.982022 117.56533)
  create_atoms CPU = 0.000 seconds
create_atoms 1 single 88.22416 30.7481 80.32756366762177
Created 1 atoms
  using lattice units in orthogonal box = (68.195723 16.754678 70.545003) to (114.37642 59.982022 117.56533)
  create_atoms CPU = 0.000 seconds
create_atoms 4 single 90.60188000000001 28.8362 82.11575518624642
Created 1 atoms
  using lattice units in orthogonal box = (68.195723 16.754678 70.545003) to (114.37642 59.982022 117.56533)
  create_atoms CPU = 0.000 seconds
create_atoms 4 single 91.05404 32.3234 81.03744378223494
Created 1 atoms
  using lattice units in orthogonal box = (68.195723 16.754678 70.545003) to (114.37642 59.982022 117.56533)
  create_atoms CPU = 0.000 seconds
create_atoms 3 single 95.05392 32.5755 78.97558865329513
Created 1 atoms
  using lattice units in orthogonal box = (68.195723 16.754678 70.545003) to (114.37642 59.982022 117.56533)
  create_atoms CPU = 0.000 seconds
create_atoms 4 single 91.41334 29.9702 79.74864722063036
Created 1 atoms
  using lattice units in orthogonal box = (68.195723 16.754678 70.545003) to (114.37642 59.982022 117.56533)
  create_atoms CPU = 0.000 seconds
create_atoms 1 single 93.53528000000001 29.499 78.28885203438395
Created 1 atoms
  using lattice units in orthogonal box = (68.195723 16.754678 70.545003) to (114.37642 59.982022 117.56533)
  create_atoms CPU = 0.000 seconds
create_atoms 1 single 92.06742 32.4645 78.41455083094554
Created 1 atoms
  using lattice units in orthogonal box = (68.195723 16.754678 70.545003) to (114.37642 59.982022 117.56533)
  create_atoms CPU = 0.000 seconds
create_atoms 1 single 94.63248 31.1311 81.04907037249284
Created 1 atoms
  using lattice units in orthogonal box = (68.195723 16.754678 70.545003) to (114.37642 59.982022 117.56533)
  create_atoms CPU = 0.000 seconds
create_atoms 4 single 93.10116000000001 30.311 82.8015046418338
Created 1 atoms
  using lattice units in orthogonal box = (68.195723 16.754678 70.545003) to (114.37642 59.982022 117.56533)
  create_atoms CPU = 0.000 seconds
create_atoms 3 single 96.11498 28.8756 80.42167323782235
Created 1 atoms
  using lattice units in orthogonal box = (68.195723 16.754678 70.545003) to (114.37642 59.982022 117.56533)
  create_atoms CPU = 0.000 seconds
create_atoms 3 single 97.21506 31.13 80.92260378223496
Created 1 atoms
  using lattice units in orthogonal box = (68.195723 16.754678 70.545003) to (114.37642 59.982022 117.56533)
  create_atoms CPU = 0.000 seconds
create_atoms 1 single 96.30316 30.6328 78.06805650429799
Created 1 atoms
  using lattice units in orthogonal box = (68.195723 16.754678 70.545003) to (114.37642 59.982022 117.56533)
  create_atoms CPU = 0.000 seconds
create_atoms 1 single 98.90115999999999 29.262 80.28862555873924
Created 1 atoms
  using lattice units in orthogonal box = (68.195723 16.754678 70.545003) to (114.37642 59.982022 117.56533)
  create_atoms CPU = 0.000 seconds
create_atoms 3 single 97.63992 33.015 79.48178406876791
Created 1 atoms
  using lattice units in orthogonal box = (68.195723 16.754678 70.545003) to (114.37642 59.982022 117.56533)
  create_atoms CPU = 0.000 seconds
create_atoms 5 single 99.37895999999999 31.6255 78.70148630372492
Created 1 atoms
  using lattice units in orthogonal box = (68.195723 16.754678 70.545003) to (114.37642 59.982022 117.56533)
  create_atoms CPU = 0.000 seconds
create_atoms 5 single 98.58798 29.3114 82.92468068767907
Created 1 atoms
  using lattice units in orthogonal box = (68.195723 16.754678 70.545003) to (114.37642 59.982022 117.56533)
  create_atoms CPU = 0.000 seconds
create_atoms 1 single 99.86982 32.1264 81.88717203438395
Created 1 atoms
  using lattice units in orthogonal box = (68.195723 16.754678 70.545003) to (114.37642 59.982022 117.56533)
  create_atoms CPU = 0.000 seconds
create_atoms 1 single 101.7115 29.8015 83.05937363896847
Created 1 atoms
  using lattice units in orthogonal box = (68.195723 16.754678 70.545003) to (114.37642 59.982022 117.56533)
  create_atoms CPU = 0.000 seconds
create_atoms 3 single 102.83692 32.2138 82.40323908309456
Created 1 atoms
  using lattice units in orthogonal box = (68.195723 16.754678 70.545003) to (114.37642 59.982022 117.56533)
  create_atoms CPU = 0.000 seconds
create_atoms 1 single 71.82684 37.0667 80.63873948424069
Created 1 atoms
  using lattice units in orthogonal box = (68.195723 16.754678 70.545003) to (114.37642 59.982022 117.56533)
  create_atoms CPU = 0.000 seconds
create_atoms 5 single 70.48956 38.0601 82.76969604584527
Created 1 atoms
  using lattice units in orthogonal box = (68.195723 16.754678 70.545003) to (114.37642 59.982022 117.56533)
  create_atoms CPU = 0.000 seconds
create_atoms 1 single 73.60604000000001 34.632 80.45117845272206
Created 1 atoms
  using lattice units in orthogonal box = (68.195723 16.754678 70.545003) to (114.37642 59.982022 117.56533)
  create_atoms CPU = 0.000 seconds
create_atoms 2 single 75.00174 34.8164 78.50153088825213
Created 1 atoms
  using lattice units in orthogonal box = (68.195723 16.754678 70.545003) to (114.37642 59.982022 117.56533)
  create_atoms CPU = 0.000 seconds
create_atoms 1 single 73.53620000000001 37.1427 78.60178280802292
Created 1 atoms
  using lattice units in orthogonal box = (68.195723 16.754678 70.545003) to (114.37642 59.982022 117.56533)
  create_atoms CPU = 0.000 seconds
create_atoms 2 single 74.55792000000001 36.612 82.48385742120344
Created 1 atoms
  using lattice units in orthogonal box = (68.195723 16.754678 70.545003) to (114.37642 59.982022 117.56533)
  create_atoms CPU = 0.000 seconds
create_atoms 1 single 76.2699 36.4563 81.06914269340974
Created 1 atoms
  using lattice units in orthogonal box = (68.195723 16.754678 70.545003) to (114.37642 59.982022 117.56533)
  create_atoms CPU = 0.000 seconds
create_atoms 3 single 72.6618 35.1056 82.84493982808023
Created 1 atoms
  using lattice units in orthogonal box = (68.195723 16.754678 70.545003) to (114.37642 59.982022 117.56533)
  create_atoms CPU = 0.000 seconds
create_atoms 1 single 77.17836 33.6774 81.96460951289399
Created 1 atoms
  using lattice units in orthogonal box = (68.195723 16.754678 70.545003) to (114.37642 59.982022 117.56533)
  create_atoms CPU = 0.000 seconds
create_atoms 5 single 77.43532 33.6528 79.08911243553008
Created 1 atoms
  using lattice units in orthogonal box = (68.195723 16.754678 70.545003) to (114.37642 59.982022 117.56533)
  create_atoms CPU = 0.000 seconds
create_atoms 3 single 79.71966 35.2129 79.0283470487106
Created 1 atoms
  using lattice units in orthogonal box = (68.195723 16.754678 70.545003) to (114.37642 59.982022 117.56533)
  create_atoms CPU = 0.000 seconds
create_atoms 1 single 77.03196 36.686 78.43659747851004
Created 1 atoms
  using lattice units in orthogonal box = (68.195723 16.754678 70.545003) to (114.37642 59.982022 117.56533)
  create_atoms CPU = 0.000 seconds
create_atoms 1 single 79.86512 37.7594 80.47607690544412
Created 1 atoms
  using lattice units in orthogonal box = (68.195723 16.754678 70.545003) to (114.37642 59.982022 117.56533)
  create_atoms CPU = 0.000 seconds
create_atoms 3 single 78.78656000000001 35.4865 81.02899805157593
Created 1 atoms
  using lattice units in orthogonal box = (68.195723 16.754678 70.545003) to (114.37642 59.982022 117.56533)
  create_atoms CPU = 0.000 seconds
create_atoms 3 single 81.54958 35.6021 81.70059816618911
Created 1 atoms
  using lattice units in orthogonal box = (68.195723 16.754678 70.545003) to (114.37642 59.982022 117.56533)
  create_atoms CPU = 0.000 seconds
create_atoms 1 single 79.03384000000001 37.6388 83.11213203438395
Created 1 atoms
  using lattice units in orthogonal box = (68.195723 16.754678 70.545003) to (114.37642 59.982022 117.56533)
  create_atoms CPU = 0.000 seconds
create_atoms 3 single 82.12478 34.035 80.01529100286533
Created 1 atoms
  using lattice units in orthogonal box = (68.195723 16.754678 70.545003) to (114.37642 59.982022 117.56533)
  create_atoms CPU = 0.000 seconds
create_atoms 1 single 84.65438 34.5699 79.53925891117478
Created 1 atoms
  using lattice units in orthogonal box = (68.195723 16.754678 70.545003) to (114.37642 59.982022 117.56533)
  create_atoms CPU = 0.000 seconds
create_atoms 1 single 82.41068 36.6018 79.37582853868194
Created 1 atoms
  using lattice units in orthogonal box = (68.195723 16.754678 70.545003) to (114.37642 59.982022 117.56533)
  create_atoms CPU = 0.000 seconds
create_atoms 5 single 84.55424000000001 35.2075 82.2927864756447
Created 1 atoms
  using lattice units in orthogonal box = (68.195723 16.754678 70.545003) to (114.37642 59.982022 117.56533)
  create_atoms CPU = 0.000 seconds
create_atoms 3 single 85.34958 37.2817 81.07429787965616
Created 1 atoms
  using lattice units in orthogonal box = (68.195723 16.754678 70.545003) to (114.37642 59.982022 117.56533)
  create_atoms CPU = 0.000 seconds
create_atoms 1 single 83.13858 37.9208 82.22160103151862
Created 1 atoms
  using lattice units in orthogonal box = (68.195723 16.754678 70.545003) to (114.37642 59.982022 117.56533)
  create_atoms CPU = 0.000 seconds
create_atoms 1 single 86.64918 36.5758 78.97109157593123
Created 1 atoms
  using lattice units in orthogonal box = (68.195723 16.754678 70.545003) to (114.37642 59.982022 117.56533)
  create_atoms CPU = 0.000 seconds
create_atoms 3 single 87.1387 35.477 81.6713123209169
Created 1 atoms
  using lattice units in orthogonal box = (68.195723 16.754678 70.545003) to (114.37642 59.982022 117.56533)
  create_atoms CPU = 0.000 seconds
create_atoms 1 single 88.14178 33.7033 80.17159186246417
Created 1 atoms
  using lattice units in orthogonal box = (68.195723 16.754678 70.545003) to (114.37642 59.982022 117.56533)
  create_atoms CPU = 0.000 seconds
create_atoms 1 single 89.62198 36.2661 81.421998739255
Created 1 atoms
  using lattice units in orthogonal box = (68.195723 16.754678 70.545003) to (114.37642 59.982022 117.56533)
  create_atoms CPU = 0.000 seconds
create_atoms 5 single 90.29038 37.4234 78.75830303724928
Created 1 atoms
  using lattice units in orthogonal box = (68.195723 16.754678 70.545003) to (114.37642 59.982022 117.56533)
  create_atoms CPU = 0.000 seconds
create_atoms 2 single 88.07192 37.8451 82.6895164469914
Created 1 atoms
  using lattice units in orthogonal box = (68.195723 16.754678 70.545003) to (114.37642 59.982022 117.56533)
  create_atoms CPU = 0.000 seconds
create_atoms 4 single 91.17718 34.7122 79.80140561604584
Created 1 atoms
  using lattice units in orthogonal box = (68.195723 16.754678 70.545003) to (114.37642 59.982022 117.56533)
  create_atoms CPU = 0.000 seconds
create_atoms 3 single 93.98502 33.8951 80.57918063037248
Created 1 atoms
  using lattice units in orthogonal box = (68.195723 16.754678 70.545003) to (114.37642 59.982022 117.56533)
  create_atoms CPU = 0.000 seconds
create_atoms 1 single 93.47166 36.3191 79.36124045845271
Created 1 atoms
  using lattice units in orthogonal box = (68.195723 16.754678 70.545003) to (114.37642 59.982022 117.56533)
  create_atoms CPU = 0.000 seconds
create_atoms 2 single 94.74282000000001 35.6021 82.69883965616046
Created 1 atoms
  using lattice units in orthogonal box = (68.195723 16.754678 70.545003) to (114.37642 59.982022 117.56533)
  create_atoms CPU = 0.000 seconds
create_atoms 4 single 92.29458 34.6323 82.79634945558738
Created 1 atoms
  using lattice units in orthogonal box = (68.195723 16.754678 70.545003) to (114.37642 59.982022 117.56533)
  create_atoms CPU = 0.000 seconds
create_atoms 4 single 92.4723 37.1684 81.67405444126075
Created 1 atoms
  using lattice units in orthogonal box = (68.195723 16.754678 70.545003) to (114.37642 59.982022 117.56533)
  create_atoms CPU = 0.000 seconds
create_atoms 1 single 96.83234 33.6573 81.74491083094556
Created 1 atoms
  using lattice units in orthogonal box = (68.195723 16.754678 70.545003) to (114.37642 59.982022 117.56533)
  create_atoms CPU = 0.000 seconds
create_atoms 1 single 96.14902000000001 35.3001 78.89935770773639
Created 1 atoms
  using lattice units in orthogonal box = (68.195723 16.754678 70.545003) to (114.37642 59.982022 117.56533)
  create_atoms CPU = 0.000 seconds
create_atoms 1 single 96.5585 36.5891 81.6098888252149
Created 1 atoms
  using lattice units in orthogonal box = (68.195723 16.754678 70.545003) to (114.37642 59.982022 117.56533)
  create_atoms CPU = 0.000 seconds
create_atoms 2 single 98.3262 37.8352 80.4000653295129
Created 1 atoms
  using lattice units in orthogonal box = (68.195723 16.754678 70.545003) to (114.37642 59.982022 117.56533)
  create_atoms CPU = 0.000 seconds
create_atoms 1 single 100.17458 37.0879 79.21349501432664
Created 1 atoms
  using lattice units in orthogonal box = (68.195723 16.754678 70.545003) to (114.37642 59.982022 117.56533)
  create_atoms CPU = 0.000 seconds
create_atoms 1 single 99.30908 35.224 81.36002681948423
Created 1 atoms
  using lattice units in orthogonal box = (68.195723 16.754678 70.545003) to (114.37642 59.982022 117.56533)
  create_atoms CPU = 0.000 seconds
create_atoms 1 single 100.89620000000001 37.682 82.94036561604585
Created 1 atoms
  using lattice units in orthogonal box = (68.195723 16.754678 70.545003) to (114.37642 59.982022 117.56533)
  create_atoms CPU = 0.000 seconds
create_atoms 1 single 101.319 33.8858 80.23608653295129
Created 1 atoms
  using lattice units in orthogonal box = (68.195723 16.754678 70.545003) to (114.37642 59.982022 117.56533)
  create_atoms CPU = 0.000 seconds
create_atoms 2 single 102.57386 36.2935 81.47102785100286
Created 1 atoms
  using lattice units in orthogonal box = (68.195723 16.754678 70.545003) to (114.37642 59.982022 117.56533)
  create_atoms CPU = 0.000 seconds
create_atoms 1 single 71.1409 41.0096 82.79174269340973
Created 1 atoms
  using lattice units in orthogonal box = (68.195723 16.754678 70.545003) to (114.37642 59.982022 117.56533)
  create_atoms CPU = 0.000 seconds
create_atoms 1 single 72.88028 42.625 81.18837008595987
Created 1 atoms
  using lattice units in orthogonal box = (68.195723 16.754678 70.545003) to (114.37642 59.982022 117.56533)
  create_atoms CPU = 0.000 seconds
create_atoms 5 single 71.68858 39.9821 80.18585088825215
Created 1 atoms
  using lattice units in orthogonal box = (68.195723 16.754678 70.545003) to (114.37642 59.982022 117.56533)
  create_atoms CPU = 0.000 seconds
create_atoms 2 single 74.25888 38.9231 80.77760045845272
Created 1 atoms
  using lattice units in orthogonal box = (68.195723 16.754678 70.545003) to (114.37642 59.982022 117.56533)
  create_atoms CPU = 0.000 seconds
create_atoms 1 single 74.26812 41.1907 79.09075770773639
Created 1 atoms
  using lattice units in orthogonal box = (68.195723 16.754678 70.545003) to (114.37642 59.982022 117.56533)
  create_atoms CPU = 0.000 seconds
create_atoms 4 single 75.65082 41.3066 82.18661157593122
Created 1 atoms
  using lattice units in orthogonal box = (68.195723 16.754678 70.545003) to (114.37642 59.982022 117.56533)
  create_atoms CPU = 0.000 seconds
create_atoms 1 single 73.3646 38.8 83.23706303724929
Created 1 atoms
  using lattice units in orthogonal box = (68.195723 16.754678 70.545003) to (114.37642 59.982022 117.56533)
  create_atoms CPU = 0.000 seconds
create_atoms 3 single 76.35866 41.0826 78.00718143266475
Created 1 atoms
  using lattice units in orthogonal box = (68.195723 16.754678 70.545003) to (114.37642 59.982022 117.56533)
  create_atoms CPU = 0.000 seconds
create_atoms 2 single 77.17132 42.2039 80.47333478510029
Created 1 atoms
  using lattice units in orthogonal box = (68.195723 16.754678 70.545003) to (114.37642 59.982022 117.56533)
  create_atoms CPU = 0.000 seconds
create_atoms 1 single 79.43696 40.7561 79.96615220630372
Created 1 atoms
  using lattice units in orthogonal box = (68.195723 16.754678 70.545003) to (114.37642 59.982022 117.56533)
  create_atoms CPU = 0.000 seconds
create_atoms 1 single 76.81402 39.2145 80.20405856733524
Created 1 atoms
  using lattice units in orthogonal box = (68.195723 16.754678 70.545003) to (114.37642 59.982022 117.56533)
  create_atoms CPU = 0.000 seconds
create_atoms 5 single 81.1914 39.6525 83.01440286532952
Created 1 atoms
  using lattice units in orthogonal box = (68.195723 16.754678 70.545003) to (114.37642 59.982022 117.56533)
  create_atoms CPU = 0.000 seconds
create_atoms 4 single 78.43638 40.6155 82.88903312320916
Created 1 atoms
  using lattice units in orthogonal box = (68.195723 16.754678 70.545003) to (114.37642 59.982022 117.56533)
  create_atoms CPU = 0.000 seconds
create_atoms 4 single 80.10226 42.5956 82.33260206303724
Created 1 atoms
  using lattice units in orthogonal box = (68.195723 16.754678 70.545003) to (114.37642 59.982022 117.56533)
  create_atoms CPU = 0.000 seconds
create_atoms 2 single 82.31494 41.3286 81.67142200573065
Created 1 atoms
  using lattice units in orthogonal box = (68.195723 16.754678 70.545003) to (114.37642 59.982022 117.56533)
  create_atoms CPU = 0.000 seconds
create_atoms 2 single 81.57624 39.1731 79.45853088825214
Created 1 atoms
  using lattice units in orthogonal box = (68.195723 16.754678 70.545003) to (114.37642 59.982022 117.56533)
  create_atoms CPU = 0.000 seconds
create_atoms 4 single 84.3377 38.8988 78.99226074498567
Created 1 atoms
  using lattice units in orthogonal box = (68.195723 16.754678 70.545003) to (114.37642 59.982022 117.56533)
  create_atoms CPU = 0.000 seconds
create_atoms 1 single 82.52706 41.4257 78.87698200573067
Created 1 atoms
  using lattice units in orthogonal box = (68.195723 16.754678 70.545003) to (114.37642 59.982022 117.56533)
  create_atoms CPU = 0.000 seconds
create_atoms 3 single 83.80326000000001 43.175 80.97854303724928
Created 1 atoms
  using lattice units in orthogonal box = (68.195723 16.754678 70.545003) to (114.37642 59.982022 117.56533)
  create_atoms CPU = 0.000 seconds
create_atoms 1 single 85.6406 41.9581 79.48858452722062
Created 1 atoms
  using lattice units in orthogonal box = (68.195723 16.754678 70.545003) to (114.37642 59.982022 117.56533)
  create_atoms CPU = 0.000 seconds
create_atoms 1 single 84.81778 40.2049 81.70169501432665
Created 1 atoms
  using lattice units in orthogonal box = (68.195723 16.754678 70.545003) to (114.37642 59.982022 117.56533)
  create_atoms CPU = 0.000 seconds
create_atoms 3 single 86.2878 42.6567 82.21699426934097
Created 1 atoms
  using lattice units in orthogonal box = (68.195723 16.754678 70.545003) to (114.37642 59.982022 117.56533)
  create_atoms CPU = 0.000 seconds
create_atoms 4 single 88.60092 38.898 79.99565742120343
Created 1 atoms
  using lattice units in orthogonal box = (68.195723 16.754678 70.545003) to (114.37642 59.982022 117.56533)
  create_atoms CPU = 0.000 seconds
create_atoms 4 single 88.41402 41.5253 79.15272962750716
Created 1 atoms
  using lattice units in orthogonal box = (68.195723 16.754678 70.545003) to (114.37642 59.982022 117.56533)
  create_atoms CPU = 0.000 seconds
create_atoms 1 single 90.74066 38.8503 82.88047770773638
Created 1 atoms
  using lattice units in orthogonal box = (68.195723 16.754678 70.545003) to (114.37642 59.982022 117.56533)
  create_atoms CPU = 0.000 seconds
create_atoms 1 single 87.91524 40.5581 82.09425696275072
Created 1 atoms
  using lattice units in orthogonal box = (68.195723 16.754678 70.545003) to (114.37642 59.982022 117.56533)
  create_atoms CPU = 0.000 seconds
create_atoms 3 single 90.3392 41.5585 81.85119541547277
Created 1 atoms
  using lattice units in orthogonal box = (68.195723 16.754678 70.545003) to (114.37642 59.982022 117.56533)
  create_atoms CPU = 0.000 seconds
create_atoms 2 single 94.5124 38.4776 81.18376332378223
Created 1 atoms
  using lattice units in orthogonal box = (68.195723 16.754678 70.545003) to (114.37642 59.982022 117.56533)
  create_atoms CPU = 0.000 seconds
create_atoms 1 single 91.73062 39.9479 80.52543507163324
Created 1 atoms
  using lattice units in orthogonal box = (68.195723 16.754678 70.545003) to (114.37642 59.982022 117.56533)
  create_atoms CPU = 0.000 seconds
create_atoms 2 single 91.4755 41.6623 78.4789358166189
Created 1 atoms
  using lattice units in orthogonal box = (68.195723 16.754678 70.545003) to (114.37642 59.982022 117.56533)
  create_atoms CPU = 0.000 seconds
create_atoms 1 single 94.85646 41.1203 80.89847312320916
Created 1 atoms
  using lattice units in orthogonal box = (68.195723 16.754678 70.545003) to (114.37642 59.982022 117.56533)
  create_atoms CPU = 0.000 seconds
create_atoms 1 single 92.98192 42.6405 82.35223564469914
Created 1 atoms
  using lattice units in orthogonal box = (68.195723 16.754678 70.545003) to (114.37642 59.982022 117.56533)
  create_atoms CPU = 0.000 seconds
create_atoms 1 single 95.56158 38.5913 78.95738097421203
Created 1 atoms
  using lattice units in orthogonal box = (68.195723 16.754678 70.545003) to (114.37642 59.982022 117.56533)
  create_atoms CPU = 0.000 seconds
create_atoms 1 single 98.42045999999999 39.7139 78.18267713467048
Created 1 atoms
  using lattice units in orthogonal box = (68.195723 16.754678 70.545003) to (114.37642 59.982022 117.56533)
  create_atoms CPU = 0.000 seconds
create_atoms 1 single 99.90428 40.2776 81.30957180515759
Created 1 atoms
  using lattice units in orthogonal box = (68.195723 16.754678 70.545003) to (114.37642 59.982022 117.56533)
  create_atoms CPU = 0.000 seconds
create_atoms 3 single 97.02114 40.9215 79.7360334670487
Created 1 atoms
  using lattice units in orthogonal box = (68.195723 16.754678 70.545003) to (114.37642 59.982022 117.56533)
  create_atoms CPU = 0.000 seconds
create_atoms 1 single 99.26794 42.7653 79.5429881948424
Created 1 atoms
  using lattice units in orthogonal box = (68.195723 16.754678 70.545003) to (114.37642 59.982022 117.56533)
  create_atoms CPU = 0.000 seconds
create_atoms 1 single 97.5359 39.3547 82.33490544412606
Created 1 atoms
  using lattice units in orthogonal box = (68.195723 16.754678 70.545003) to (114.37642 59.982022 117.56533)
  create_atoms CPU = 0.000 seconds
create_atoms 1 single 98.21668000000001 42.5179 82.43987381088826
Created 1 atoms
  using lattice units in orthogonal box = (68.195723 16.754678 70.545003) to (114.37642 59.982022 117.56533)
  create_atoms CPU = 0.000 seconds
create_atoms 3 single 100.93378 42.6566 82.5331059025788
Created 1 atoms
  using lattice units in orthogonal box = (68.195723 16.754678 70.545003) to (114.37642 59.982022 117.56533)
  create_atoms CPU = 0.000 seconds
create_atoms 2 single 102.28386 41.8831 81.01473902578796
Created 1 atoms
  using lattice units in orthogonal box = (68.195723 16.754678 70.545003) to (114.37642 59.982022 117.56533)
  create_atoms CPU = 0.000 seconds
create_atoms 1 single 102.42592 39.0005 81.05137375358166
Created 1 atoms
  using lattice units in orthogonal box = (68.195723 16.754678 70.545003) to (114.37642 59.982022 117.56533)
  create_atoms CPU = 0.000 seconds
create_atoms 1 single 75.62376 46.6588 78.17993501432665
Created 1 atoms
  using lattice units in orthogonal box = (68.195723 16.754678 70.545003) to (114.37642 59.982022 117.56533)
  create_atoms CPU = 0.000 seconds
create_atoms 4 single 72.32598 43.353 78.09196779369628
Created 1 atoms
  using lattice units in orthogonal box = (68.195723 16.754678 70.545003) to (114.37642 59.982022 117.56533)
  create_atoms CPU = 0.000 seconds
create_atoms 2 single 73.25136 45.8356 78.79636366762176
Created 1 atoms
  using lattice units in orthogonal box = (68.195723 16.754678 70.545003) to (114.37642 59.982022 117.56533)
  create_atoms CPU = 0.000 seconds
create_atoms 1 single 75.42328 44.3004 80.71014429799426
Created 1 atoms
  using lattice units in orthogonal box = (68.195723 16.754678 70.545003) to (114.37642 59.982022 117.56533)
  create_atoms CPU = 0.000 seconds
create_atoms 1 single 74.69186 47.9439 80.66265077363897
Created 1 atoms
  using lattice units in orthogonal box = (68.195723 16.754678 70.545003) to (114.37642 59.982022 117.56533)
  create_atoms CPU = 0.000 seconds
create_atoms 1 single 73.22608000000001 45.644 81.72856779369627
Created 1 atoms
  using lattice units in orthogonal box = (68.195723 16.754678 70.545003) to (114.37642 59.982022 117.56533)
  create_atoms CPU = 0.000 seconds
create_atoms 2 single 80.50102 45.9814 78.28073535816618
Created 1 atoms
  using lattice units in orthogonal box = (68.195723 16.754678 70.545003) to (114.37642 59.982022 117.56533)
  create_atoms CPU = 0.000 seconds
create_atoms 4 single 78.11304 44.5104 79.929078739255
Created 1 atoms
  using lattice units in orthogonal box = (68.195723 16.754678 70.545003) to (114.37642 59.982022 117.56533)
  create_atoms CPU = 0.000 seconds
create_atoms 1 single 80.92066000000001 43.515 79.74513730659025
Created 1 atoms
  using lattice units in orthogonal box = (68.195723 16.754678 70.545003) to (114.37642 59.982022 117.56533)
  create_atoms CPU = 0.000 seconds
create_atoms 2 single 78.3982 47.6133 78.72133925501431
Created 1 atoms
  using lattice units in orthogonal box = (68.195723 16.754678 70.545003) to (114.37642 59.982022 117.56533)
  create_atoms CPU = 0.000 seconds
create_atoms 4 single 77.5354 46.6746 81.1398893982808
Created 1 atoms
  using lattice units in orthogonal box = (68.195723 16.754678 70.545003) to (114.37642 59.982022 117.56533)
  create_atoms CPU = 0.000 seconds
create_atoms 4 single 80.25062000000001 46.2135 80.73219094555874
Created 1 atoms
  using lattice units in orthogonal box = (68.195723 16.754678 70.545003) to (114.37642 59.982022 117.56533)
  create_atoms CPU = 0.000 seconds
create_atoms 1 single 82.32542000000001 44.5059 82.82004137535816
Created 1 atoms
  using lattice units in orthogonal box = (68.195723 16.754678 70.545003) to (114.37642 59.982022 117.56533)
  create_atoms CPU = 0.000 seconds
create_atoms 2 single 85.1864 46.2748 78.03087335243553
Created 1 atoms
  using lattice units in orthogonal box = (68.195723 16.754678 70.545003) to (114.37642 59.982022 117.56533)
  create_atoms CPU = 0.000 seconds
create_atoms 2 single 85.67576000000001 44.7489 80.36705020057306
Created 1 atoms
  using lattice units in orthogonal box = (68.195723 16.754678 70.545003) to (114.37642 59.982022 117.56533)
  create_atoms CPU = 0.000 seconds
create_atoms 5 single 83.11378 45.71 80.32021478510028
Created 1 atoms
  using lattice units in orthogonal box = (68.195723 16.754678 70.545003) to (114.37642 59.982022 117.56533)
  create_atoms CPU = 0.000 seconds
create_atoms 1 single 83.11212 47.4973 82.69171014326646
Created 1 atoms
  using lattice units in orthogonal box = (68.195723 16.754678 70.545003) to (114.37642 59.982022 117.56533)
  create_atoms CPU = 0.000 seconds
create_atoms 1 single 85.94258 47.2321 81.78011965616047
Created 1 atoms
  using lattice units in orthogonal box = (68.195723 16.754678 70.545003) to (114.37642 59.982022 117.56533)
  create_atoms CPU = 0.000 seconds
create_atoms 1 single 83.41572 47.8484 78.56152848137535
Created 1 atoms
  using lattice units in orthogonal box = (68.195723 16.754678 70.545003) to (114.37642 59.982022 117.56533)
  create_atoms CPU = 0.000 seconds
create_atoms 4 single 85.4332 44.8632 83.10105386819482
Created 1 atoms
  using lattice units in orthogonal box = (68.195723 16.754678 70.545003) to (114.37642 59.982022 117.56533)
  create_atoms CPU = 0.000 seconds
create_atoms 1 single 88.36036 43.6332 81.36024618911175
Created 1 atoms
  using lattice units in orthogonal box = (68.195723 16.754678 70.545003) to (114.37642 59.982022 117.56533)
  create_atoms CPU = 0.000 seconds
create_atoms 1 single 90.53892 43.7588 79.8442923782235
Created 1 atoms
  using lattice units in orthogonal box = (68.195723 16.754678 70.545003) to (114.37642 59.982022 117.56533)
  create_atoms CPU = 0.000 seconds
create_atoms 1 single 87.80272000000001 46.4619 80.01265856733524
Created 1 atoms
  using lattice units in orthogonal box = (68.195723 16.754678 70.545003) to (114.37642 59.982022 117.56533)
  create_atoms CPU = 0.000 seconds
create_atoms 1 single 90.48724 47.2915 79.53311656160457
Created 1 atoms
  using lattice units in orthogonal box = (68.195723 16.754678 70.545003) to (114.37642 59.982022 117.56533)
  create_atoms CPU = 0.000 seconds
create_atoms 1 single 90.80398 45.7655 82.23037581661892
Created 1 atoms
  using lattice units in orthogonal box = (68.195723 16.754678 70.545003) to (114.37642 59.982022 117.56533)
  create_atoms CPU = 0.000 seconds
create_atoms 3 single 89.02364 47.5653 82.72878361031518
Created 1 atoms
  using lattice units in orthogonal box = (68.195723 16.754678 70.545003) to (114.37642 59.982022 117.56533)
  create_atoms CPU = 0.000 seconds
create_atoms 1 single 93.33672 43.6428 79.41761845272205
Created 1 atoms
  using lattice units in orthogonal box = (68.195723 16.754678 70.545003) to (114.37642 59.982022 117.56533)
  create_atoms CPU = 0.000 seconds
create_atoms 2 single 95.46566 43.9345 82.20262555873926
Created 1 atoms
  using lattice units in orthogonal box = (68.195723 16.754678 70.545003) to (114.37642 59.982022 117.56533)
  create_atoms CPU = 0.000 seconds
create_atoms 3 single 91.49616 45.6364 78.10644618911175
Created 1 atoms
  using lattice units in orthogonal box = (68.195723 16.754678 70.545003) to (114.37642 59.982022 117.56533)
  create_atoms CPU = 0.000 seconds
create_atoms 1 single 94.54636 46.0682 78.52160320916904
Created 1 atoms
  using lattice units in orthogonal box = (68.195723 16.754678 70.545003) to (114.37642 59.982022 117.56533)
  create_atoms CPU = 0.000 seconds
create_atoms 2 single 94.82388 48.0012 80.73482338108882
Created 1 atoms
  using lattice units in orthogonal box = (68.195723 16.754678 70.545003) to (114.37642 59.982022 117.56533)
  create_atoms CPU = 0.000 seconds
create_atoms 1 single 93.33444 45.9408 81.2606523782235
Created 1 atoms
  using lattice units in orthogonal box = (68.195723 16.754678 70.545003) to (114.37642 59.982022 117.56533)
  create_atoms CPU = 0.000 seconds
create_atoms 2 single 96.27716 45.9422 81.38547369627507
Created 1 atoms
  using lattice units in orthogonal box = (68.195723 16.754678 70.545003) to (114.37642 59.982022 117.56533)
  create_atoms CPU = 0.000 seconds
create_atoms 1 single 96.2385 43.4905 79.54671747851002
Created 1 atoms
  using lattice units in orthogonal box = (68.195723 16.754678 70.545003) to (114.37642 59.982022 117.56533)
  create_atoms CPU = 0.000 seconds
create_atoms 1 single 98.771 45.2538 81.06914269340974
Created 1 atoms
  using lattice units in orthogonal box = (68.195723 16.754678 70.545003) to (114.37642 59.982022 117.56533)
  create_atoms CPU = 0.000 seconds
create_atoms 1 single 97.20374 47.738 79.69654693409741
Created 1 atoms
  using lattice units in orthogonal box = (68.195723 16.754678 70.545003) to (114.37642 59.982022 117.56533)
  create_atoms CPU = 0.000 seconds
create_atoms 1 single 100.77676 47.5014 82.56294017191978
Created 1 atoms
  using lattice units in orthogonal box = (68.195723 16.754678 70.545003) to (114.37642 59.982022 117.56533)
  create_atoms CPU = 0.000 seconds
create_atoms 1 single 101.8353 44.8487 81.57259598853868
Created 1 atoms
  using lattice units in orthogonal box = (68.195723 16.754678 70.545003) to (114.37642 59.982022 117.56533)
  create_atoms CPU = 0.000 seconds
create_atoms 3 single 75.47394 49.6836 82.94431426934096
Created 1 atoms
  using lattice units in orthogonal box = (68.195723 16.754678 70.545003) to (114.37642 59.982022 117.56533)
  create_atoms CPU = 0.000 seconds
create_atoms 4 single 76.68432 51.6698 81.61844424068768
Created 1 atoms
  using lattice units in orthogonal box = (68.195723 16.754678 70.545003) to (114.37642 59.982022 117.56533)
  create_atoms CPU = 0.000 seconds
create_atoms 1 single 78.78642 50.2338 78.06355942693409
Created 1 atoms
  using lattice units in orthogonal box = (68.195723 16.754678 70.545003) to (114.37642 59.982022 117.56533)
  create_atoms CPU = 0.000 seconds
create_atoms 2 single 79.79336 48.8866 81.51325650429798
Created 1 atoms
  using lattice units in orthogonal box = (68.195723 16.754678 70.545003) to (114.37642 59.982022 117.56533)
  create_atoms CPU = 0.000 seconds
create_atoms 1 single 76.89564 49.4007 79.73493661891116
Created 1 atoms
  using lattice units in orthogonal box = (68.195723 16.754678 70.545003) to (114.37642 59.982022 117.56533)
  create_atoms CPU = 0.000 seconds
create_atoms 1 single 79.28664 51.6468 80.85975438395415
Created 1 atoms
  using lattice units in orthogonal box = (68.195723 16.754678 70.545003) to (114.37642 59.982022 117.56533)
  create_atoms CPU = 0.000 seconds
create_atoms 1 single 78.08696 49.0251 83.08613673352434
Created 1 atoms
  using lattice units in orthogonal box = (68.195723 16.754678 70.545003) to (114.37642 59.982022 117.56533)
  create_atoms CPU = 0.000 seconds
create_atoms 1 single 82.24432 50.3793 82.64125512893983
Created 1 atoms
  using lattice units in orthogonal box = (68.195723 16.754678 70.545003) to (114.37642 59.982022 117.56533)
  create_atoms CPU = 0.000 seconds
create_atoms 1 single 81.23904 48.578 79.71464492836677
Created 1 atoms
  using lattice units in orthogonal box = (68.195723 16.754678 70.545003) to (114.37642 59.982022 117.56533)
  create_atoms CPU = 0.000 seconds
create_atoms 1 single 81.70678000000001 51.7656 79.65113742120343
Created 1 atoms
  using lattice units in orthogonal box = (68.195723 16.754678 70.545003) to (114.37642 59.982022 117.56533)
  create_atoms CPU = 0.000 seconds
create_atoms 1 single 84.2193 51.1033 78.33305501432665
Created 1 atoms
  using lattice units in orthogonal box = (68.195723 16.754678 70.545003) to (114.37642 59.982022 117.56533)
  create_atoms CPU = 0.000 seconds
create_atoms 1 single 84.2593 49.911 81.04830257879655
Created 1 atoms
  using lattice units in orthogonal box = (68.195723 16.754678 70.545003) to (114.37642 59.982022 117.56533)
  create_atoms CPU = 0.000 seconds
create_atoms 3 single 84.11458 53.0581 81.36276893982809
Created 1 atoms
  using lattice units in orthogonal box = (68.195723 16.754678 70.545003) to (114.37642 59.982022 117.56533)
  create_atoms CPU = 0.000 seconds
create_atoms 2 single 86.1496 51.9529 80.9517799426934
Created 1 atoms
  using lattice units in orthogonal box = (68.195723 16.754678 70.545003) to (114.37642 59.982022 117.56533)
  create_atoms CPU = 0.000 seconds
create_atoms 2 single 86.36382 48.9744 79.8815852148997
Created 1 atoms
  using lattice units in orthogonal box = (68.195723 16.754678 70.545003) to (114.37642 59.982022 117.56533)
  create_atoms CPU = 0.000 seconds
create_atoms 2 single 87.92986 48.6181 78.34336538681949
Created 1 atoms
  using lattice units in orthogonal box = (68.195723 16.754678 70.545003) to (114.37642 59.982022 117.56533)
  create_atoms CPU = 0.000 seconds
create_atoms 1 single 87.6557 51.1766 79.29499083094555
Created 1 atoms
  using lattice units in orthogonal box = (68.195723 16.754678 70.545003) to (114.37642 59.982022 117.56533)
  create_atoms CPU = 0.000 seconds
create_atoms 1 single 89.88212 49.3802 81.37055656160459
Created 1 atoms
  using lattice units in orthogonal box = (68.195723 16.754678 70.545003) to (114.37642 59.982022 117.56533)
  create_atoms CPU = 0.000 seconds
create_atoms 1 single 90.23638 50.1837 78.52302911174785
Created 1 atoms
  using lattice units in orthogonal box = (68.195723 16.754678 70.545003) to (114.37642 59.982022 117.56533)
  create_atoms CPU = 0.000 seconds
create_atoms 3 single 91.29574 51.9073 80.86030280802292
Created 1 atoms
  using lattice units in orthogonal box = (68.195723 16.754678 70.545003) to (114.37642 59.982022 117.56533)
  create_atoms CPU = 0.000 seconds
create_atoms 1 single 87.55272000000001 50.0215 82.78603908309455
Created 1 atoms
  using lattice units in orthogonal box = (68.195723 16.754678 70.545003) to (114.37642 59.982022 117.56533)
  create_atoms CPU = 0.000 seconds
create_atoms 1 single 89.63694 52.1587 82.53299621776503
Created 1 atoms
  using lattice units in orthogonal box = (68.195723 16.754678 70.545003) to (114.37642 59.982022 117.56533)
  create_atoms CPU = 0.000 seconds
create_atoms 1 single 92.52696 48.3001 78.16293386819483
Created 1 atoms
  using lattice units in orthogonal box = (68.195723 16.754678 70.545003) to (114.37642 59.982022 117.56533)
  create_atoms CPU = 0.000 seconds
create_atoms 1 single 93.39748 50.7228 80.08823140401145
Created 1 atoms
  using lattice units in orthogonal box = (68.195723 16.754678 70.545003) to (114.37642 59.982022 117.56533)
  create_atoms CPU = 0.000 seconds
create_atoms 2 single 92.65982 48.6452 81.49395197707736
Created 1 atoms
  using lattice units in orthogonal box = (68.195723 16.754678 70.545003) to (114.37642 59.982022 117.56533)
  create_atoms CPU = 0.000 seconds
create_atoms 1 single 94.65528 52.6065 82.57204401146132
Created 1 atoms
  using lattice units in orthogonal box = (68.195723 16.754678 70.545003) to (114.37642 59.982022 117.56533)
  create_atoms CPU = 0.000 seconds
create_atoms 1 single 95.38974 49.7156 82.998608252149
Created 1 atoms
  using lattice units in orthogonal box = (68.195723 16.754678 70.545003) to (114.37642 59.982022 117.56533)
  create_atoms CPU = 0.000 seconds
create_atoms 2 single 97.40264 51.5285 82.69807186246419
Created 1 atoms
  using lattice units in orthogonal box = (68.195723 16.754678 70.545003) to (114.37642 59.982022 117.56533)
  create_atoms CPU = 0.000 seconds
create_atoms 3 single 96.16568000000001 50.0082 80.5094210888252
Created 1 atoms
  using lattice units in orthogonal box = (68.195723 16.754678 70.545003) to (114.37642 59.982022 117.56533)
  create_atoms CPU = 0.000 seconds
create_atoms 1 single 97.96418000000001 48.3009 82.82102853868194
Created 1 atoms
  using lattice units in orthogonal box = (68.195723 16.754678 70.545003) to (114.37642 59.982022 117.56533)
  create_atoms CPU = 0.000 seconds
create_atoms 3 single 79.30080000000001 53.8008 82.84823037249284
Created 1 atoms
  using lattice units in orthogonal box = (68.195723 16.754678 70.545003) to (114.37642 59.982022 117.56533)
  create_atoms CPU = 0.000 seconds
create_atoms 1 single 82.08036 53.3953 82.67427025787964
Created 1 atoms
  using lattice units in orthogonal box = (68.195723 16.754678 70.545003) to (114.37642 59.982022 117.56533)
  create_atoms CPU = 0.000 seconds
create_atoms 1 single 87.35086 53.7632 83.03513329512894
Created 1 atoms
  using lattice units in orthogonal box = (68.195723 16.754678 70.545003) to (114.37642 59.982022 117.56533)
  create_atoms CPU = 0.000 seconds
create_atoms 1 single 80.27136 22.9583 88.46453157593123
Created 1 atoms
  using lattice units in orthogonal box = (68.195723 16.754678 70.545003) to (114.37642 59.982022 117.56533)
  create_atoms CPU = 0.000 seconds
create_atoms 1 single 81.95756 22.0105 86.00155908309455
Created 1 atoms
  using lattice units in orthogonal box = (68.195723 16.754678 70.545003) to (114.37642 59.982022 117.56533)
  create_atoms CPU = 0.000 seconds
create_atoms 5 single 84.19384000000001 20.2186 87.9903641260745
Created 1 atoms
  using lattice units in orthogonal box = (68.195723 16.754678 70.545003) to (114.37642 59.982022 117.56533)
  create_atoms CPU = 0.000 seconds
create_atoms 1 single 83.5537 22.7206 84.07889398280803
Created 1 atoms
  using lattice units in orthogonal box = (68.195723 16.754678 70.545003) to (114.37642 59.982022 117.56533)
  create_atoms CPU = 0.000 seconds
create_atoms 3 single 84.86408 22.4964 87.03292538681949
Created 1 atoms
  using lattice units in orthogonal box = (68.195723 16.754678 70.545003) to (114.37642 59.982022 117.56533)
  create_atoms CPU = 0.000 seconds
create_atoms 1 single 86.795 22.0881 85.35178624641833
Created 1 atoms
  using lattice units in orthogonal box = (68.195723 16.754678 70.545003) to (114.37642 59.982022 117.56533)
  create_atoms CPU = 0.000 seconds
create_atoms 3 single 87.33508 23.2419 87.88517638968482
Created 1 atoms
  using lattice units in orthogonal box = (68.195723 16.754678 70.545003) to (114.37642 59.982022 117.56533)
  create_atoms CPU = 0.000 seconds
create_atoms 1 single 87.11110000000001 20.6711 88.24252951289397
Created 1 atoms
  using lattice units in orthogonal box = (68.195723 16.754678 70.545003) to (114.37642 59.982022 117.56533)
  create_atoms CPU = 0.000 seconds
create_atoms 1 single 89.8494 19.9973 87.77088481375358
Created 1 atoms
  using lattice units in orthogonal box = (68.195723 16.754678 70.545003) to (114.37642 59.982022 117.56533)
  create_atoms CPU = 0.000 seconds
create_atoms 2 single 89.47586 21.891 85.01713787965616
Created 1 atoms
  using lattice units in orthogonal box = (68.195723 16.754678 70.545003) to (114.37642 59.982022 117.56533)
  create_atoms CPU = 0.000 seconds
create_atoms 1 single 92.37454 21.4044 87.28892974212033
Created 1 atoms
  using lattice units in orthogonal box = (68.195723 16.754678 70.545003) to (114.37642 59.982022 117.56533)
  create_atoms CPU = 0.000 seconds
create_atoms 1 single 89.95414 22.8857 87.8176105444126
Created 1 atoms
  using lattice units in orthogonal box = (68.195723 16.754678 70.545003) to (114.37642 59.982022 117.56533)
  create_atoms CPU = 0.000 seconds
create_atoms 2 single 92.8923 22.7563 83.30561604584527
Created 1 atoms
  using lattice units in orthogonal box = (68.195723 16.754678 70.545003) to (114.37642 59.982022 117.56533)
  create_atoms CPU = 0.000 seconds
create_atoms 3 single 94.73172 19.695 88.0470711747851
Created 1 atoms
  using lattice units in orthogonal box = (68.195723 16.754678 70.545003) to (114.37642 59.982022 117.56533)
  create_atoms CPU = 0.000 seconds
create_atoms 1 single 94.82784 21.7182 86.13504550143266
Created 1 atoms
  using lattice units in orthogonal box = (68.195723 16.754678 70.545003) to (114.37642 59.982022 117.56533)
  create_atoms CPU = 0.000 seconds
create_atoms 1 single 96.26608 23.2778 83.88113226361031
Created 1 atoms
  using lattice units in orthogonal box = (68.195723 16.754678 70.545003) to (114.37642 59.982022 117.56533)
  create_atoms CPU = 0.000 seconds
create_atoms 5 single 96.71972 23.2256 88.50116630372493
Created 1 atoms
  using lattice units in orthogonal box = (68.195723 16.754678 70.545003) to (114.37642 59.982022 117.56533)
  create_atoms CPU = 0.000 seconds
create_atoms 1 single 98.15526000000001 22.0763 86.67776595988538
Created 1 atoms
  using lattice units in orthogonal box = (68.195723 16.754678 70.545003) to (114.37642 59.982022 117.56533)
  create_atoms CPU = 0.000 seconds
create_atoms 1 single 77.13218 24.9875 84.0950176504298
Created 1 atoms
  using lattice units in orthogonal box = (68.195723 16.754678 70.545003) to (114.37642 59.982022 117.56533)
  create_atoms CPU = 0.000 seconds
create_atoms 1 single 73.90598 28.2806 85.55821306590256
Created 1 atoms
  using lattice units in orthogonal box = (68.195723 16.754678 70.545003) to (114.37642 59.982022 117.56533)
  create_atoms CPU = 0.000 seconds
create_atoms 3 single 75.99672 27.4364 84.48066945558739
Created 1 atoms
  using lattice units in orthogonal box = (68.195723 16.754678 70.545003) to (114.37642 59.982022 117.56533)
  create_atoms CPU = 0.000 seconds
create_atoms 3 single 76.57224000000001 27.9242 87.47320022922635
Created 1 atoms
  using lattice units in orthogonal box = (68.195723 16.754678 70.545003) to (114.37642 59.982022 117.56533)
  create_atoms CPU = 0.000 seconds
create_atoms 2 single 78.49736 25.1478 87.18560664756446
Created 1 atoms
  using lattice units in orthogonal box = (68.195723 16.754678 70.545003) to (114.37642 59.982022 117.56533)
  create_atoms CPU = 0.000 seconds
create_atoms 1 single 78.71588 27.7161 86.25087266475644
Created 1 atoms
  using lattice units in orthogonal box = (68.195723 16.754678 70.545003) to (114.37642 59.982022 117.56533)
  create_atoms CPU = 0.000 seconds
create_atoms 1 single 75.67304 25.5586 86.19153318051576
Created 1 atoms
  using lattice units in orthogonal box = (68.195723 16.754678 70.545003) to (114.37642 59.982022 117.56533)
  create_atoms CPU = 0.000 seconds
create_atoms 1 single 79.31008 26.6962 83.54056091690543
Created 1 atoms
  using lattice units in orthogonal box = (68.195723 16.754678 70.545003) to (114.37642 59.982022 117.56533)
  create_atoms CPU = 0.000 seconds
create_atoms 1 single 80.21516 24.4049 85.76957570200572
Created 1 atoms
  using lattice units in orthogonal box = (68.195723 16.754678 70.545003) to (114.37642 59.982022 117.56533)
  create_atoms CPU = 0.000 seconds
create_atoms 2 single 82.607 25.1159 85.0172475644699
Created 1 atoms
  using lattice units in orthogonal box = (68.195723 16.754678 70.545003) to (114.37642 59.982022 117.56533)
  create_atoms CPU = 0.000 seconds
create_atoms 1 single 83.37270000000001 24.3133 87.9326699140401
Created 1 atoms
  using lattice units in orthogonal box = (68.195723 16.754678 70.545003) to (114.37642 59.982022 117.56533)
  create_atoms CPU = 0.000 seconds
create_atoms 1 single 81.78641999999999 27.061 86.5531640114613
Created 1 atoms
  using lattice units in orthogonal box = (68.195723 16.754678 70.545003) to (114.37642 59.982022 117.56533)
  create_atoms CPU = 0.000 seconds
create_atoms 1 single 82.21602 27.5635 83.61470785100286
Created 1 atoms
  using lattice units in orthogonal box = (68.195723 16.754678 70.545003) to (114.37642 59.982022 117.56533)
  create_atoms CPU = 0.000 seconds
create_atoms 2 single 81.1316 25.7353 88.53264584527221
Created 1 atoms
  using lattice units in orthogonal box = (68.195723 16.754678 70.545003) to (114.37642 59.982022 117.56533)
  create_atoms CPU = 0.000 seconds
create_atoms 1 single 85.516 24.8861 85.99837822349569
Created 1 atoms
  using lattice units in orthogonal box = (68.195723 16.754678 70.545003) to (114.37642 59.982022 117.56533)
  create_atoms CPU = 0.000 seconds
create_atoms 1 single 84.97008000000001 27.28 87.61425489971347
Created 1 atoms
  using lattice units in orthogonal box = (68.195723 16.754678 70.545003) to (114.37642 59.982022 117.56533)
  create_atoms CPU = 0.000 seconds
create_atoms 4 single 85.10106 26.8071 83.68446739255013
Created 1 atoms
  using lattice units in orthogonal box = (68.195723 16.754678 70.545003) to (114.37642 59.982022 117.56533)
  create_atoms CPU = 0.000 seconds
[...]
  create_atoms CPU = 0.000 seconds
create_atoms 1 single 108.4328 44.3799 110.69720458452721
Created 1 atoms
  using lattice units in orthogonal box = (68.195723 16.754678 70.545003) to (114.37642 59.982022 117.56533)
  create_atoms CPU = 0.000 seconds
create_atoms 1 single 96.648 48.5367 111.80282750716331
Created 1 atoms
  using lattice units in orthogonal box = (68.195723 16.754678 70.545003) to (114.37642 59.982022 117.56533)
  create_atoms CPU = 0.000 seconds
create_atoms 1 single 101.5605 49.2028 110.56448595988539
Created 1 atoms
  using lattice units in orthogonal box = (68.195723 16.754678 70.545003) to (114.37642 59.982022 117.56533)
  create_atoms CPU = 0.000 seconds
group surface id  1 2 3 4 5 6 7 8 9 10 11 12 13 14 15 16 19 20 21 22 23 24 25 26 31 33 34 35 38 40 42 44 46 47 48 49 50 51 52 53 57 58 60 66 67 69 72 74 75 78 79 80 81 82 83 84 85 87 88 91 93 94 95 97 99 100 101 102 103 104 105 106 107 108 109 110 111 112 113 115 116 118 119 121 126 127 129 130 131 132 133 134 136 137 158 162 164 165 167 170 171 172 173 174 175 176 179 210 213 214 215 216 217 248 251 255 256 257 258 259 261 262 266 286 291 292 293 294 295 296 297 299 300 304 305 307 308 310 311 313 314 316 317 318 320 322 323 324 325 326 327 328 329 330 331 332 333 335 336 337 338 340 341 342 343 345 346 347 348 350 352 354 381 382 383 384 387 388 389 390 431 432 433 435 436 437 483 484 485 487 488 489 491 529 530 531 532 533 534 538 539 541 576 577 578 581 583 584 585 586 615 616 618 619 620 621 622 623 625 626 629 630 632 633 634 635 636 637 638 639 640 641 643 644 645 649 651 652 654 657 660 661 663 664 665 666 667 668 671 673 702 707 708 709 710 711 712 713 762 763 766 767 769 771 813 816 817 818 820 864 865 868 871 875 876 877 878 922 923 924 925 926 927 929 930 962 963 964 965 966 967 968 970 971 973 976 977 979 981 983 987 988 989 990 991 992 993 994 995 996 997 1001 1002 1004 1006 1007 1008 1012 1013 1014 1016 1017 1019 1020 1021 1022 1023 1057 1058 1063 1064 1065 1067 1068 1108 1109 1111 1112 1114 1115 1117 1120 1165 1169 1170 1171 1172 1175 1217 1218 1221 1223 1224 1227 1270 1271 1273 1275 1276 1277 1280 1282 1316 1317 1318 1319 1320 1321 1322 1323 1325 1326 1331 1332 1333 1334 1335 1337 1340 1342 1343 1344 1345 1346 1347 1348 1349 1350 1351 1352 1353 1354 1357 1358 1359 1360 1362 1363 1364 1365 1366 1367 1368 1369 1370 1399 1400 1401 1404 1405 1406 1407 1408 1411 1452 1454 1455 1457 1458 1459 1460 1499 1500 1504 1505 1506 1507 1508 1510 1511 1512 1553 1555 1556 1557 1558 1560 1561 1562 1567 1568 1604 1605 1606 1607 1608 1609 1610 1612 1615 1637 1640 1641 1642 1643 1644 1645 1647 1648 1649 1650 1651 1652 1653 1654 1655 1656 1657 1658 1659 1660 1661 1662 1663 1664 1665 1667 1669 1670 1672 1673 1676 1682 1684 1685 1686 1687 1688 1690 1691 1692 1693 1694 1695 1696 1699 1720 1726 1727 1728 1729 1730 1731 1733 1766 1770 1771 1772 1773 1774 1775 1778 1811 1812 1813 1814 1815 1816 1817 1818 1819 1823 1825 1826 1846 1851 1852 1853 1854 1855 1857 1858 1860 1862 1863 1864 1865 1868 1869 1870 1871 1872 1873 1874 1875 1876 1877 1878 1879 1880 1881 1882 1883 1884 1885 1886 1887 1888 1891 1892 1893 1894 1897 1898 1899 1900 1901 1902 1903 1904 1906 1908 1911 1914 1915 1916 1917 1923 1924 1925 1928 1929 1930 1932 1933 1934 1935 1936 1937 1939 1940 1941 1946 1948 1949 1954 1956 1958 1961 1962 1964 1965 1966 1967 1970 1971 1972 1973 1974 1976 1978 1979 1980 1981 1982 1983 1984 1985 
618 atoms in group surface
            fix freeze surface setforce 0 0 0 
            minimize 0 1e-4 100000 100000
Neighbor list info ...
  update: every = 1 steps, delay = 0 steps, check = yes
  max neighbors/atom: 2000, page size: 100000
  master list distance cutoff = 9.1553683
  ghost atom cutoff = 9.1553683
  binsize = 4.5776842, bins = 11 10 11
  1 neighbor lists, perpetual/occasional/extra = 1 0 0
  (1) pair eam/alloy, perpetual
      attributes: half, newton on
      pair build: half/bin/atomonly/newton
      stencil: half/bin/3d
      bin: standard
Per MPI rank memory allocation (min/avg/max) = 4.075 | 4.363 | 4.467 Mbytes
   Step          Temp          E_pair         E_mol          TotEng         Press          Volume    
         0   0             -9994.0114      0             -9994.0114     -12074.423      71183.008    
       891   0             -10359.088      0             -10359.088     -32313.759      71183.008    
Loop time of 0.277492 on 192 procs for 891 steps with 1985 atoms

99.8% CPU use with 192 MPI tasks x 1 OpenMP threads

Minimization stats:
  Stopping criterion = linesearch alpha is zero
  Energy initial, next-to-last, final = 
     -9994.01137514446  -10359.0880711027  -10359.0880711027
  Force two-norm initial, final = 47.746023 0.034027192
  Force max component initial, final = 3.2964086 0.012014421
  Final line search alpha, max atom move = 7.6293945e-06 9.1662762e-08
  Iterations, force evaluations = 891 1710

MPI task timing breakdown:
Section |  min time  |  avg time  |  max time  |%varavg| %total
---------------------------------------------------------------
Pair    | 0.082887   | 0.11537    | 0.1606     |   6.6 | 41.58
Neigh   | 2.4492e-05 | 0.00052754 | 0.00144    |   0.0 |  0.19
Comm    | 0.014463   | 0.092545   | 0.1322     |   8.0 | 33.35
Output  | 0          | 0          | 0          |   0.0 |  0.00
Modify  | 8.1709e-05 | 0.00012394 | 0.0002811  |   0.0 |  0.04
Other   |            | 0.06892    |            |       | 24.84

Nlocal:        10.3385 ave          23 max           0 min
Histogram: 51 16 10 12 9 6 25 19 30 14
Nghost:        347.182 ave         810 max          29 min
Histogram: 16 23 33 33 28 24 9 12 3 11
Neighs:        643.193 ave        1834 max           0 min
Histogram: 70 13 17 9 17 15 12 16 12 11

Total # of neighbors = 123493
Ave neighs/atom = 62.213098
Neighbor list builds = 30
Dangerous builds = 0
            unfix freeze
            compute force all property/atom fx fy fz
            dump fcal all custom 1 dump.force id type x y z fx fy fz
            run 1 
WARNING: No fixes with time integration, atoms won't move (src/verlet.cpp:60)
Per MPI rank memory allocation (min/avg/max) = 2.95 | 3.238 | 3.342 Mbytes
   Step          Temp          E_pair         E_mol          TotEng         Press          Volume    
       891   0             -10359.088      0             -10359.088     -32313.759      71183.008    
       892   0             -10359.088      0             -10359.088     -32313.759      71183.008    
Loop time of 0.00128178 on 192 procs for 1 steps with 1985 atoms

Performance: 67.406 ns/day, 0.356 hours/ns, 780.162 timesteps/s, 1.549 Matom-step/s
99.8% CPU use with 192 MPI tasks x 1 OpenMP threads

MPI task timing breakdown:
Section |  min time  |  avg time  |  max time  |%varavg| %total
---------------------------------------------------------------
Pair    | 6.5996e-05 | 9.0132e-05 | 0.00012609 |   0.0 |  7.03
Neigh   | 0          | 0          | 0          |   0.0 |  0.00
Comm    | 9.496e-06  | 6.3142e-05 | 8.9839e-05 |   0.0 |  4.93
Output  | 0.0001296  | 0.00055696 | 0.0011525  |   0.0 | 43.45
Modify  | 1.4799e-07 | 2.8419e-07 | 6.32e-07   |   0.0 |  0.02
Other   |            | 0.0005713  |            |       | 44.57

Nlocal:        10.3385 ave          22 max           0 min
Histogram: 51 16 10 9 7 11 18 12 29 29
Nghost:        347.062 ave         809 max          29 min
Histogram: 16 23 32 33 29 24 9 12 3 11
Neighs:        643.427 ave        1781 max           0 min
Histogram: 69 14 15 10 17 14 8 17 14 14

Total # of neighbors = 123538
Ave neighs/atom = 62.235768
Neighbor list builds = 0
Dangerous builds = 0
            
Total wall time: 0:00:00
                                                                                                                                                                                                                                                                                                                                                                                                                                                                                                                                                                                                                                                                                                                                                                                                                                                                                                                                                                                                                                                                                                                                                                                                                                                                                                                                                                                                                                                                                                                                                                                                                                                                                                                                                                                                                                                                                                                                                                                                                                                                                                                                                                                                                                                                                                                                                                                                                                                                                                                                                                                                                                                                                                                                                                                                                                                                                                                                                                                                                                                                                                                                                                                                                                                                                                                                                                                                                                                                                                                                                                                                                                                                                                                                                                                                                                                                                                                                                                                                                                                                                                                                                                                                                                                                                                                                                                                                                                                                                                                                                                                                                                                                                                                                                                                                                                                                                                                                                                                                                                                                                                                                                                                                                                                                                                                                                                                                                                                                                                                                                                                                                                                                                                                                                                                                                                                                                                                                                                                                                                                                                                                                                                                                                                                                                                                                                                                                                                                                                                                                                                                                                                                                                                                                                                                                                                                                                                                                                                                                                                                                                                                                                                                                                                                                                                                                                                                                                                                                                                                                                                                                                                                                                                                                                                                                                                                                                                                                                                                                                                                                                                                                                                                                                                                                                                                                                                                                                                                                                                                                                                                                                                                                                                                                                                                                                                                                                                                                                                                                                                                                                                                                                                                                                                                                                                                                                                                                                                                                                                                                                                                                                                                                                                                                                                                                                                                                                                                                                                                                                                                                                                                                                                                                                                                                                                                                                                                                                                                                                                                                                                                                                                                                                                                                                                                                                                                                                                                                                                                                                                                                                                                                                                                                                                                                                                                                                                                                                                                                                                                                                                                                                                                                                                                                                                                                                                                                                                                                                                                                                                                                                                                                                                                                                                                                                                                                                                                                                                                                                                                                                                                                                                                                                                                                                                     
Total wall time: 0:00:00
