LAMMPS (2 Aug 2023)
WARNING: Using I/O redirection is unreliable with parallel runs. Better to use the -in switch to read input files. (src/lammps.cpp:537)
OMP_NUM_THREADS environment is not set. Defaulting to 1 thread. (src/comm.cpp:98)
  using 1 OpenMP thread(s) per MPI task

    dimension 3
    units metal
    boundary s s s
    atom_style atomic
    timestep 0.001
    region myregion block 56.45721266475645 98.87007679083094 45.786 84.8915 58.72538805823102 99.50047797800053  units box
    create_box 5 myregion
Created orthogonal box = (56.457213 45.786 58.725388) to (98.870077 84.8915 99.500478)
  6 by 4 by 4 MPI processor grid
    mass 1 91.224
    mass 2 63.546
    mass 3 58.693
    mass 4 26.982
    mass 5 47.867 
    pair_style eam/alloy
    pair_coeff * * ZrTiCuNiAl_Zhou04.eam.alloy Zr Cu Ni Al Ti
Reading eam/alloy potential file ZrTiCuNiAl_Zhou04.eam.alloy with DATE: 2018-03-30
    create_atoms 1 single 67.79048246418338 56.1941 65.40350297396125
Created 1 atoms
  using lattice units in orthogonal box = (56.452971 45.782089 58.721311) to (98.874318 84.895411 99.504555)
  create_atoms CPU = 0.000 seconds
create_atoms 2 single 70.46977140401147 56.1484 64.27297221949293
Created 1 atoms
  using lattice units in orthogonal box = (56.452971 45.782089 58.721311) to (98.874318 84.895411 99.504555)
  create_atoms CPU = 0.000 seconds
create_atoms 1 single 73.475388252149 57.7209 65.88656472607478
Created 1 atoms
  using lattice units in orthogonal box = (56.452971 45.782089 58.721311) to (98.874318 84.895411 99.504555)
  create_atoms CPU = 0.000 seconds
create_atoms 1 single 73.26046979942693 55.8143 63.70996461972775
Created 1 atoms
  using lattice units in orthogonal box = (56.452971 45.782089 58.721311) to (98.874318 84.895411 99.504555)
  create_atoms CPU = 0.000 seconds
create_atoms 2 single 76.53189977077363 56.3162 64.54287925328484
Created 1 atoms
  using lattice units in orthogonal box = (56.452971 45.782089 58.721311) to (98.874318 84.895411 99.504555)
  create_atoms CPU = 0.000 seconds
create_atoms 2 single 63.66088160458453 60.6665 65.31934945011739
Created 1 atoms
  using lattice units in orthogonal box = (56.452971 45.782089 58.721311) to (98.874318 84.895411 99.504555)
  create_atoms CPU = 0.000 seconds
create_atoms 1 single 65.92195736389685 58.9005 64.45051562955378
Created 1 atoms
  using lattice units in orthogonal box = (56.452971 45.782089 58.721311) to (98.874318 84.895411 99.504555)
  create_atoms CPU = 0.000 seconds
create_atoms 2 single 67.09796194842407 60.4378 62.630952242051634
Created 1 atoms
  using lattice units in orthogonal box = (56.452971 45.782089 58.721311) to (98.874318 84.895411 99.504555)
  create_atoms CPU = 0.000 seconds
create_atoms 1 single 65.53183020057307 62.0153 63.79699167853214
Created 1 atoms
  using lattice units in orthogonal box = (56.452971 45.782089 58.721311) to (98.874318 84.895411 99.504555)
  create_atoms CPU = 0.000 seconds
create_atoms 1 single 68.8644140974212 58.4243 64.09491567818914
Created 1 atoms
  using lattice units in orthogonal box = (56.452971 45.782089 58.721311) to (98.874318 84.895411 99.504555)
  create_atoms CPU = 0.000 seconds
create_atoms 1 single 68.64831106017192 61.1605 65.42125731496735
Created 1 atoms
  using lattice units in orthogonal box = (56.452971 45.782089 58.721311) to (98.874318 84.895411 99.504555)
  create_atoms CPU = 0.000 seconds
create_atoms 5 single 71.47357810888252 58.1983 63.031091985304364
Created 1 atoms
  using lattice units in orthogonal box = (56.452971 45.782089 58.721311) to (98.874318 84.895411 99.504555)
  create_atoms CPU = 0.000 seconds
create_atoms 1 single 69.93785123209169 60.6761 62.64439628061694
Created 1 atoms
  using lattice units in orthogonal box = (56.452971 45.782089 58.721311) to (98.874318 84.895411 99.504555)
  create_atoms CPU = 0.000 seconds
create_atoms 1 single 72.66010309455588 60.8263 61.87162062873363
Created 1 atoms
  using lattice units in orthogonal box = (56.452971 45.782089 58.721311) to (98.874318 84.895411 99.504555)
  create_atoms CPU = 0.000 seconds
create_atoms 2 single 73.37168607449857 60.0702 64.43173502606179
Created 1 atoms
  using lattice units in orthogonal box = (56.452971 45.782089 58.721311) to (98.874318 84.895411 99.504555)
  create_atoms CPU = 0.000 seconds
create_atoms 5 single 71.39639684813754 59.7979 65.65360314177529
Created 1 atoms
  using lattice units in orthogonal box = (56.452971 45.782089 58.721311) to (98.874318 84.895411 99.504555)
  create_atoms CPU = 0.000 seconds
create_atoms 1 single 73.36451489971347 62.8175 64.55550228186142
Created 1 atoms
  using lattice units in orthogonal box = (56.452971 45.782089 58.721311) to (98.874318 84.895411 99.504555)
  create_atoms CPU = 0.000 seconds
create_atoms 2 single 70.85179524355301 62.2724 64.73242993443071
Created 1 atoms
  using lattice units in orthogonal box = (56.452971 45.782089 58.721311) to (98.874318 84.895411 99.504555)
  create_atoms CPU = 0.000 seconds
create_atoms 1 single 74.56849530085961 58.3529 63.10241722807447
Created 1 atoms
  using lattice units in orthogonal box = (56.452971 45.782089 58.721311) to (98.874318 84.895411 99.504555)
  create_atoms CPU = 0.000 seconds
create_atoms 1 single 75.8356888252149 60.6857 61.94315112400091
Created 1 atoms
  using lattice units in orthogonal box = (56.452971 45.782089 58.721311) to (98.874318 84.895411 99.504555)
  create_atoms CPU = 0.000 seconds
create_atoms 3 single 77.47755541547278 58.8992 63.997112863282794
Created 1 atoms
  using lattice units in orthogonal box = (56.452971 45.782089 58.721311) to (98.874318 84.895411 99.504555)
  create_atoms CPU = 0.000 seconds
create_atoms 1 single 76.03083914040114 61.3156 64.70800488726628
Created 1 atoms
  using lattice units in orthogonal box = (56.452971 45.782089 58.721311) to (98.874318 84.895411 99.504555)
  create_atoms CPU = 0.000 seconds
create_atoms 1 single 78.83480234957021 61.2894 63.89992580586799
Created 1 atoms
  using lattice units in orthogonal box = (56.452971 45.782089 58.721311) to (98.874318 84.895411 99.504555)
  create_atoms CPU = 0.000 seconds
create_atoms 2 single 81.73457489971346 60.8978 65.6658156653575
Created 1 atoms
  using lattice units in orthogonal box = (56.452971 45.782089 58.721311) to (98.874318 84.895411 99.504555)
  create_atoms CPU = 0.000 seconds
create_atoms 3 single 63.53028349570201 66.2976 64.17927445453019
Created 1 atoms
  using lattice units in orthogonal box = (56.452971 45.782089 58.721311) to (98.874318 84.895411 99.504555)
  create_atoms CPU = 0.000 seconds
create_atoms 1 single 64.05063329512895 63.5902 65.67587303771933
Created 1 atoms
  using lattice units in orthogonal box = (56.452971 45.782089 58.721311) to (98.874318 84.895411 99.504555)
  create_atoms CPU = 0.000 seconds
create_atoms 1 single 68.16378687679084 63.1457 63.101493591837155
Created 1 atoms
  using lattice units in orthogonal box = (56.452971 45.782089 58.721311) to (98.874318 84.895411 99.504555)
  create_atoms CPU = 0.000 seconds
create_atoms 2 single 65.35121312320916 64.6987 63.868214295053654
Created 1 atoms
  using lattice units in orthogonal box = (56.452971 45.782089 58.721311) to (98.874318 84.895411 99.504555)
  create_atoms CPU = 0.000 seconds
create_atoms 4 single 66.18497564469914 65.3488 61.66759964653655
Created 1 atoms
  using lattice units in orthogonal box = (56.452971 45.782089 58.721311) to (98.874318 84.895411 99.504555)
  create_atoms CPU = 0.000 seconds
create_atoms 1 single 65.35882383954154 67.5958 63.13843904132959
Created 1 atoms
  using lattice units in orthogonal box = (56.452971 45.782089 58.721311) to (98.874318 84.895411 99.504555)
  create_atoms CPU = 0.000 seconds
create_atoms 1 single 67.93637948424069 65.6872 64.56258349301415
Created 1 atoms
  using lattice units in orthogonal box = (56.452971 45.782089 58.721311) to (98.874318 84.895411 99.504555)
  create_atoms CPU = 0.000 seconds
create_atoms 2 single 70.14299340974212 67.3422 65.49607185018951
Created 1 atoms
  using lattice units in orthogonal box = (56.452971 45.782089 58.721311) to (98.874318 84.895411 99.504555)
  create_atoms CPU = 0.000 seconds
create_atoms 1 single 70.91736458452722 63.4221 61.96973132238575
Created 1 atoms
  using lattice units in orthogonal box = (56.452971 45.782089 58.721311) to (98.874318 84.895411 99.504555)
  create_atoms CPU = 0.000 seconds
create_atoms 2 single 68.95994968481375 65.611 62.24220401239241
Created 1 atoms
  using lattice units in orthogonal box = (56.452971 45.782089 58.721311) to (98.874318 84.895411 99.504555)
  create_atoms CPU = 0.000 seconds
create_atoms 1 single 71.52182681948425 67.7345 63.621192914697325
Created 1 atoms
  using lattice units in orthogonal box = (56.452971 45.782089 58.721311) to (98.874318 84.895411 99.504555)
  create_atoms CPU = 0.000 seconds
create_atoms 2 single 73.11574613180515 65.3288 63.19570448804285
Created 1 atoms
  using lattice units in orthogonal box = (56.452971 45.782089 58.721311) to (98.874318 84.895411 99.504555)
  create_atoms CPU = 0.000 seconds
create_atoms 1 single 70.87074166189112 66.2759 61.03891124767372
Created 1 atoms
  using lattice units in orthogonal box = (56.452971 45.782089 58.721311) to (98.874318 84.895411 99.504555)
  create_atoms CPU = 0.000 seconds
create_atoms 1 single 71.0778935816619 65.0297 64.54585541449396
Created 1 atoms
  using lattice units in orthogonal box = (56.452971 45.782089 58.721311) to (98.874318 84.895411 99.504555)
  create_atoms CPU = 0.000 seconds
create_atoms 2 single 74.42989363896848 67.221 64.52758794224492
Created 1 atoms
  using lattice units in orthogonal box = (56.452971 45.782089 58.721311) to (98.874318 84.895411 99.504555)
  create_atoms CPU = 0.000 seconds
create_atoms 3 single 73.2657488252149 65.6525 60.72538805823102
Created 1 atoms
  using lattice units in orthogonal box = (56.452971 45.782089 58.721311) to (98.874318 84.895411 99.504555)
  create_atoms CPU = 0.000 seconds
create_atoms 1 single 74.33546166189112 63.3216 62.00595838813804
Created 1 atoms
  using lattice units in orthogonal box = (56.452971 45.782089 58.721311) to (98.874318 84.895411 99.504555)
  create_atoms CPU = 0.000 seconds
create_atoms 2 single 77.39338836676218 63.6155 63.16378772473134
Created 1 atoms
  using lattice units in orthogonal box = (56.452971 45.782089 58.721311) to (98.874318 84.895411 99.504555)
  create_atoms CPU = 0.000 seconds
create_atoms 1 single 75.86478137535816 66.1467 62.348011674688784
Created 1 atoms
  using lattice units in orthogonal box = (56.452971 45.782089 58.721311) to (98.874318 84.895411 99.504555)
  create_atoms CPU = 0.000 seconds
create_atoms 1 single 79.12972435530087 66.1432 63.15311459487797
Created 1 atoms
  using lattice units in orthogonal box = (56.452971 45.782089 58.721311) to (98.874318 84.895411 99.504555)
  create_atoms CPU = 0.000 seconds
create_atoms 1 single 75.90073724928367 64.5281 64.77358306011534
Created 1 atoms
  using lattice units in orthogonal box = (56.452971 45.782089 58.721311) to (98.874318 84.895411 99.504555)
  create_atoms CPU = 0.000 seconds
create_atoms 3 single 78.64899604584527 65.0285 65.37209934189269
Created 1 atoms
  using lattice units in orthogonal box = (56.452971 45.782089 58.721311) to (98.874318 84.895411 99.504555)
  create_atoms CPU = 0.000 seconds
create_atoms 1 single 77.36879650429799 67.2943 65.04687676011073
Created 1 atoms
  using lattice units in orthogonal box = (56.452971 45.782089 58.721311) to (98.874318 84.895411 99.504555)
  create_atoms CPU = 0.000 seconds
create_atoms 1 single 80.6874606303725 63.7097 64.84193214167634
Created 1 atoms
  using lattice units in orthogonal box = (56.452971 45.782089 58.721311) to (98.874318 84.895411 99.504555)
  create_atoms CPU = 0.000 seconds
create_atoms 1 single 82.64995352435531 65.9046 64.77902225129061
Created 1 atoms
  using lattice units in orthogonal box = (56.452971 45.782089 58.721311) to (98.874318 84.895411 99.504555)
  create_atoms CPU = 0.000 seconds
create_atoms 5 single 62.32884836676218 68.6065 64.63226671580681
Created 1 atoms
  using lattice units in orthogonal box = (56.452971 45.782089 58.721311) to (98.874318 84.895411 99.504555)
  create_atoms CPU = 0.000 seconds
create_atoms 2 single 64.12515742120344 70.6239 64.25316535351504
Created 1 atoms
  using lattice units in orthogonal box = (56.452971 45.782089 58.721311) to (98.874318 84.895411 99.504555)
  create_atoms CPU = 0.000 seconds
create_atoms 1 single 68.21876418338108 68.1186 62.813934843287754
Created 1 atoms
  using lattice units in orthogonal box = (56.452971 45.782089 58.721311) to (98.874318 84.895411 99.504555)
  create_atoms CPU = 0.000 seconds
create_atoms 3 single 64.98631128939829 68.4106 65.3481874259712
Created 1 atoms
  using lattice units in orthogonal box = (56.452971 45.782089 58.721311) to (98.874318 84.895411 99.504555)
  create_atoms CPU = 0.000 seconds
create_atoms 1 single 66.73288934097421 70.5578 63.74865471544621
Created 1 atoms
  using lattice units in orthogonal box = (56.452971 45.782089 58.721311) to (98.874318 84.895411 99.504555)
  create_atoms CPU = 0.000 seconds
create_atoms 1 single 67.75562229226361 68.3896 65.7806544375298
Created 1 atoms
  using lattice units in orthogonal box = (56.452971 45.782089 58.721311) to (98.874318 84.895411 99.504555)
  create_atoms CPU = 0.000 seconds
create_atoms 1 single 68.84062962750716 70.9648 62.00975555933588
Created 1 atoms
  using lattice units in orthogonal box = (56.452971 45.782089 58.721311) to (98.874318 84.895411 99.504555)
  create_atoms CPU = 0.000 seconds
create_atoms 3 single 69.69031902578797 68.641 61.09125063445466
Created 1 atoms
  using lattice units in orthogonal box = (56.452971 45.782089 58.721311) to (98.874318 84.895411 99.504555)
  create_atoms CPU = 0.000 seconds
create_atoms 3 single 71.58307232091691 70.1584 62.36894742940116
Created 1 atoms
  using lattice units in orthogonal box = (56.452971 45.782089 58.721311) to (98.874318 84.895411 99.504555)
  create_atoms CPU = 0.000 seconds
create_atoms 1 single 71.57890510028653 72.5602 63.56033554928341
Created 1 atoms
  using lattice units in orthogonal box = (56.452971 45.782089 58.721311) to (98.874318 84.895411 99.504555)
  create_atoms CPU = 0.000 seconds
create_atoms 1 single 70.27168378223496 70.0912 64.80426830844378
Created 1 atoms
  using lattice units in orthogonal box = (56.452971 45.782089 58.721311) to (98.874318 84.895411 99.504555)
  create_atoms CPU = 0.000 seconds
create_atoms 1 single 73.38294957020058 70.1214 64.96498101373585
Created 1 atoms
  using lattice units in orthogonal box = (56.452971 45.782089 58.721311) to (98.874318 84.895411 99.504555)
  create_atoms CPU = 0.000 seconds
create_atoms 1 single 73.43673140401145 68.2756 61.980712330984886
Created 1 atoms
  using lattice units in orthogonal box = (56.452971 45.782089 58.721311) to (98.874318 84.895411 99.504555)
  create_atoms CPU = 0.000 seconds
create_atoms 5 single 76.33042750716332 68.9761 62.14840362118108
Created 1 atoms
  using lattice units in orthogonal box = (56.452971 45.782089 58.721311) to (98.874318 84.895411 99.504555)
  create_atoms CPU = 0.000 seconds
create_atoms 1 single 74.24279971346705 71.3597 62.77031868763697
Created 1 atoms
  using lattice units in orthogonal box = (56.452971 45.782089 58.721311) to (98.874318 84.895411 99.504555)
  create_atoms CPU = 0.000 seconds
create_atoms 2 single 77.26143793696275 71.167 63.65895937417847
Created 1 atoms
  using lattice units in orthogonal box = (56.452971 45.782089 58.721311) to (98.874318 84.895411 99.504555)
  create_atoms CPU = 0.000 seconds
create_atoms 2 single 75.70936366762177 69.3577 64.41100452384659
Created 1 atoms
  using lattice units in orthogonal box = (56.452971 45.782089 58.721311) to (98.874318 84.895411 99.504555)
  create_atoms CPU = 0.000 seconds
create_atoms 3 single 78.90824131805158 68.7283 63.834758138013285
Created 1 atoms
  using lattice units in orthogonal box = (56.452971 45.782089 58.721311) to (98.874318 84.895411 99.504555)
  create_atoms CPU = 0.000 seconds
create_atoms 1 single 76.21077684813754 71.5988 65.9401356278388
Created 1 atoms
  using lattice units in orthogonal box = (56.452971 45.782089 58.721311) to (98.874318 84.895411 99.504555)
  create_atoms CPU = 0.000 seconds
create_atoms 3 single 84.53602968481376 68.1324 65.39406135909097
Created 1 atoms
  using lattice units in orthogonal box = (56.452971 45.782089 58.721311) to (98.874318 84.895411 99.504555)
  create_atoms CPU = 0.000 seconds
create_atoms 3 single 80.19622664756447 70.9471 64.3923265466032
Created 1 atoms
  using lattice units in orthogonal box = (56.452971 45.782089 58.721311) to (98.874318 84.895411 99.504555)
  create_atoms CPU = 0.000 seconds
create_atoms 1 single 81.68589833810888 68.7119 64.28323484435194
Created 1 atoms
  using lattice units in orthogonal box = (56.452971 45.782089 58.721311) to (98.874318 84.895411 99.504555)
  create_atoms CPU = 0.000 seconds
create_atoms 5 single 68.51485530085961 72.975 64.03364780778087
Created 1 atoms
  using lattice units in orthogonal box = (56.452971 45.782089 58.721311) to (98.874318 84.895411 99.504555)
  create_atoms CPU = 0.000 seconds
create_atoms 1 single 66.13191140401146 73.0954 65.31165248147315
Created 1 atoms
  using lattice units in orthogonal box = (56.452971 45.782089 58.721311) to (98.874318 84.895411 99.504555)
  create_atoms CPU = 0.000 seconds
create_atoms 1 single 69.44151157593123 75.7862 64.71960165335696
Created 1 atoms
  using lattice units in orthogonal box = (56.452971 45.782089 58.721311) to (98.874318 84.895411 99.504555)
  create_atoms CPU = 0.000 seconds
create_atoms 2 single 72.10802607449857 75.1729 64.57500126909353
Created 1 atoms
  using lattice units in orthogonal box = (56.452971 45.782089 58.721311) to (98.874318 84.895411 99.504555)
  create_atoms CPU = 0.000 seconds
create_atoms 1 single 72.13543873925501 77.644 65.73129121195798
Created 1 atoms
  using lattice units in orthogonal box = (56.452971 45.782089 58.721311) to (98.874318 84.895411 99.504555)
  create_atoms CPU = 0.000 seconds
create_atoms 1 single 74.56180200573067 74.0219 64.36769624694158
Created 1 atoms
  using lattice units in orthogonal box = (56.452971 45.782089 58.721311) to (98.874318 84.895411 99.504555)
  create_atoms CPU = 0.000 seconds
create_atoms 1 single 75.068808252149 76.981 65.77911504380096
Created 1 atoms
  using lattice units in orthogonal box = (56.452971 45.782089 58.721311) to (98.874318 84.895411 99.504555)
  create_atoms CPU = 0.000 seconds
create_atoms 4 single 78.58859191977078 73.2486 65.07561210971595
Created 1 atoms
  using lattice units in orthogonal box = (56.452971 45.782089 58.721311) to (98.874318 84.895411 99.504555)
  create_atoms CPU = 0.000 seconds
create_atoms 2 single 77.17278819484241 75.466 65.00941817937534
Created 1 atoms
  using lattice units in orthogonal box = (56.452971 45.782089 58.721311) to (98.874318 84.895411 99.504555)
  create_atoms CPU = 0.000 seconds
create_atoms 2 single 82.32513489971346 72.8742 64.98530101095668
Created 1 atoms
  using lattice units in orthogonal box = (56.452971 45.782089 58.721311) to (98.874318 84.895411 99.504555)
  create_atoms CPU = 0.000 seconds
create_atoms 1 single 71.33116922636103 52.7646 69.80237186727788
Created 1 atoms
  using lattice units in orthogonal box = (56.452971 45.782089 58.721311) to (98.874318 84.895411 99.504555)
  create_atoms CPU = 0.000 seconds
create_atoms 1 single 74.36116550143267 51.7593 70.27342634830636
Created 1 atoms
  using lattice units in orthogonal box = (56.452971 45.782089 58.721311) to (98.874318 84.895411 99.504555)
  create_atoms CPU = 0.000 seconds
create_atoms 2 single 72.34434974212034 52.3431 67.59642065383412
Created 1 atoms
  using lattice units in orthogonal box = (56.452971 45.782089 58.721311) to (98.874318 84.895411 99.504555)
  create_atoms CPU = 0.000 seconds
create_atoms 1 single 77.28091432664756 51.9498 69.9315783142528
Created 1 atoms
  using lattice units in orthogonal box = (56.452971 45.782089 58.721311) to (98.874318 84.895411 99.504555)
  create_atoms CPU = 0.000 seconds
create_atoms 1 single 61.224859828080234 57.2537 68.85841563274633
Created 1 atoms
  using lattice units in orthogonal box = (56.452971 45.782089 58.721311) to (98.874318 84.895411 99.504555)
  create_atoms CPU = 0.000 seconds
create_atoms 1 single 63.19776280802292 56.5877 67.19217586063778
Created 1 atoms
  using lattice units in orthogonal box = (56.452971 45.782089 58.721311) to (98.874318 84.895411 99.504555)
  create_atoms CPU = 0.000 seconds
create_atoms 2 single 64.15624148997135 57.2158 69.86877105011567
Created 1 atoms
  using lattice units in orthogonal box = (56.452971 45.782089 58.721311) to (98.874318 84.895411 99.504555)
  create_atoms CPU = 0.000 seconds
create_atoms 1 single 62.86682957020058 55.2975 70.98216322106946
Created 1 atoms
  using lattice units in orthogonal box = (56.452971 45.782089 58.721311) to (98.874318 84.895411 99.504555)
  create_atoms CPU = 0.000 seconds
create_atoms 3 single 64.27149392550143 54.7139 69.27148628332141
Created 1 atoms
  using lattice units in orthogonal box = (56.452971 45.782089 58.721311) to (98.874318 84.895411 99.504555)
  create_atoms CPU = 0.000 seconds
create_atoms 3 single 65.38877954154728 56.5124 65.97697845108263
Created 1 atoms
  using lattice units in orthogonal box = (56.452971 45.782089 58.721311) to (98.874318 84.895411 99.504555)
  create_atoms CPU = 0.000 seconds
create_atoms 1 single 66.93248143266476 53.7068 70.20938756918615
Created 1 atoms
  using lattice units in orthogonal box = (56.452971 45.782089 58.721311) to (98.874318 84.895411 99.504555)
  create_atoms CPU = 0.000 seconds
create_atoms 3 single 67.09842532951289 54.5236 67.31963766138666
Created 1 atoms
  using lattice units in orthogonal box = (56.452971 45.782089 58.721311) to (98.874318 84.895411 99.504555)
  create_atoms CPU = 0.000 seconds
create_atoms 1 single 66.24072962750716 56.3522 68.81490210334412
Created 1 atoms
  using lattice units in orthogonal box = (56.452971 45.782089 58.721311) to (98.874318 84.895411 99.504555)
  create_atoms CPU = 0.000 seconds
create_atoms 2 single 68.62133558739255 56.6256 68.16866461597239
Created 1 atoms
  using lattice units in orthogonal box = (56.452971 45.782089 58.721311) to (98.874318 84.895411 99.504555)
  create_atoms CPU = 0.000 seconds
create_atoms 1 single 68.99348286532951 56.6895 71.00628038948813
Created 1 atoms
  using lattice units in orthogonal box = (56.452971 45.782089 58.721311) to (98.874318 84.895411 99.504555)
  create_atoms CPU = 0.000 seconds
create_atoms 2 single 69.14528962750717 54.4593 69.56704987926084
Created 1 atoms
  using lattice units in orthogonal box = (56.452971 45.782089 58.721311) to (98.874318 84.895411 99.504555)
  create_atoms CPU = 0.000 seconds
create_atoms 1 single 69.93952957020058 54.3196 67.22142434148594
Created 1 atoms
  using lattice units in orthogonal box = (56.452971 45.782089 58.721311) to (98.874318 84.895411 99.504555)
  create_atoms CPU = 0.000 seconds
create_atoms 3 single 71.14019770773639 55.9461 69.49849554520266
Created 1 atoms
  using lattice units in orthogonal box = (56.452971 45.782089 58.721311) to (98.874318 84.895411 99.504555)
  create_atoms CPU = 0.000 seconds
create_atoms 1 single 72.47793730659026 54.746 66.18797801818384
Created 1 atoms
  using lattice units in orthogonal box = (56.452971 45.782089 58.721311) to (98.874318 84.895411 99.504555)
  create_atoms CPU = 0.000 seconds
create_atoms 2 single 75.25993518624642 55.5052 66.14754327623935
Created 1 atoms
  using lattice units in orthogonal box = (56.452971 45.782089 58.721311) to (98.874318 84.895411 99.504555)
  create_atoms CPU = 0.000 seconds
create_atoms 2 single 72.99302424068769 54.4861 69.09938206443584
Created 1 atoms
  using lattice units in orthogonal box = (56.452971 45.782089 58.721311) to (98.874318 84.895411 99.504555)
  create_atoms CPU = 0.000 seconds
create_atoms 1 single 70.87575971346705 57.0827 66.9250397355578
Created 1 atoms
  using lattice units in orthogonal box = (56.452971 45.782089 58.721311) to (98.874318 84.895411 99.504555)
  create_atoms CPU = 0.000 seconds
create_atoms 1 single 74.7522176504298 56.2 68.51389931622943
Created 1 atoms
  using lattice units in orthogonal box = (56.452971 45.782089 58.721311) to (98.874318 84.895411 99.504555)
  create_atoms CPU = 0.000 seconds
create_atoms 1 single 73.77332034383954 56.6811 70.87881858873925
Created 1 atoms
  using lattice units in orthogonal box = (56.452971 45.782089 58.721311) to (98.874318 84.895411 99.504555)
  create_atoms CPU = 0.000 seconds
create_atoms 1 single 75.0773452722063 53.2993 67.76770386273095
Created 1 atoms
  using lattice units in orthogonal box = (56.452971 45.782089 58.721311) to (98.874318 84.895411 99.504555)
  create_atoms CPU = 0.000 seconds
create_atoms 2 single 75.67673449856733 54.2375 70.48565743039065
Created 1 atoms
  using lattice units in orthogonal box = (56.452971 45.782089 58.721311) to (98.874318 84.895411 99.504555)
  create_atoms CPU = 0.000 seconds
create_atoms 3 single 77.44643283667622 54.5941 69.40366889150543
Created 1 atoms
  using lattice units in orthogonal box = (56.452971 45.782089 58.721311) to (98.874318 84.895411 99.504555)
  create_atoms CPU = 0.000 seconds
create_atoms 1 single 77.7673676790831 54.1402 67.07210314978738
Created 1 atoms
  using lattice units in orthogonal box = (56.452971 45.782089 58.721311) to (98.874318 84.895411 99.504555)
  create_atoms CPU = 0.000 seconds
create_atoms 5 single 79.95484911174785 52.9166 69.76727369026008
Created 1 atoms
  using lattice units in orthogonal box = (56.452971 45.782089 58.721311) to (98.874318 84.895411 99.504555)
  create_atoms CPU = 0.000 seconds
create_atoms 2 single 77.19573799426935 56.6135 67.93867919288203
Created 1 atoms
  using lattice units in orthogonal box = (56.452971 45.782089 58.721311) to (98.874318 84.895411 99.504555)
  create_atoms CPU = 0.000 seconds
create_atoms 1 single 79.17983140401147 56.7577 66.63686522951686
Created 1 atoms
  using lattice units in orthogonal box = (56.452971 45.782089 58.721311) to (98.874318 84.895411 99.504555)
  create_atoms CPU = 0.000 seconds
create_atoms 1 single 77.45263214899714 56.9402 70.69737538123198
Created 1 atoms
  using lattice units in orthogonal box = (56.452971 45.782089 58.721311) to (98.874318 84.895411 99.504555)
  create_atoms CPU = 0.000 seconds
create_atoms 1 single 79.9275977077364 55.9301 69.67757834899234
Created 1 atoms
  using lattice units in orthogonal box = (56.452971 45.782089 58.721311) to (98.874318 84.895411 99.504555)
  create_atoms CPU = 0.000 seconds
create_atoms 3 single 80.58333335243553 54.2929 67.80659921094659
Created 1 atoms
  using lattice units in orthogonal box = (56.452971 45.782089 58.721311) to (98.874318 84.895411 99.504555)
  create_atoms CPU = 0.000 seconds
create_atoms 2 single 82.17241724928367 56.2044 68.46268881818298
Created 1 atoms
  using lattice units in orthogonal box = (56.452971 45.782089 58.721311) to (98.874318 84.895411 99.504555)
  create_atoms CPU = 0.000 seconds
create_atoms 1 single 82.75578131805158 54.3988 70.6040881212636
Created 1 atoms
  using lattice units in orthogonal box = (56.452971 45.782089 58.721311) to (98.874318 84.895411 99.504555)
  create_atoms CPU = 0.000 seconds
create_atoms 1 single 82.97578853868195 57.396 71.16771147852033
Created 1 atoms
  using lattice units in orthogonal box = (56.452971 45.782089 58.721311) to (98.874318 84.895411 99.504555)
  create_atoms CPU = 0.000 seconds
create_atoms 3 single 59.709105444126074 62.2891 70.43496006358714
Created 1 atoms
  using lattice units in orthogonal box = (56.452971 45.782089 58.721311) to (98.874318 84.895411 99.504555)
  create_atoms CPU = 0.000 seconds
create_atoms 1 single 60.11591318051576 60.2154 68.50609972133658
Created 1 atoms
  using lattice units in orthogonal box = (56.452971 45.782089 58.721311) to (98.874318 84.895411 99.504555)
  create_atoms CPU = 0.000 seconds
create_atoms 1 single 62.61898779369628 59.48 67.64444973817426
Created 1 atoms
  using lattice units in orthogonal box = (56.452971 45.782089 58.721311) to (98.874318 84.895411 99.504555)
  create_atoms CPU = 0.000 seconds
create_atoms 1 single 65.37336154727794 58.8298 67.23589464253715
Created 1 atoms
  using lattice units in orthogonal box = (56.452971 45.782089 58.721311) to (98.874318 84.895411 99.504555)
  create_atoms CPU = 0.000 seconds
create_atoms 4 single 61.79084017191977 62.2106 66.52818403225996
Created 1 atoms
  using lattice units in orthogonal box = (56.452971 45.782089 58.721311) to (98.874318 84.895411 99.504555)
  create_atoms CPU = 0.000 seconds
create_atoms 1 single 65.09059690544413 61.7851 68.14249492258193
Created 1 atoms
  using lattice units in orthogonal box = (56.452971 45.782089 58.721311) to (98.874318 84.895411 99.504555)
  create_atoms CPU = 0.000 seconds
create_atoms 3 single 62.748565100286534 59.0742 70.4012986540496
Created 1 atoms
  using lattice units in orthogonal box = (56.452971 45.782089 58.721311) to (98.874318 84.895411 99.504555)
  create_atoms CPU = 0.000 seconds
create_atoms 1 single 65.32064613180516 59.6094 70.1799338358408
Created 1 atoms
  using lattice units in orthogonal box = (56.452971 45.782089 58.721311) to (98.874318 84.895411 99.504555)
  create_atoms CPU = 0.000 seconds
create_atoms 1 single 62.793692320916904 61.5986 69.96205831008406
Created 1 atoms
  using lattice units in orthogonal box = (56.452971 45.782089 58.721311) to (98.874318 84.895411 99.504555)
  create_atoms CPU = 0.000 seconds
create_atoms 3 single 65.31040200573067 62.7149 70.63559437958075
Created 1 atoms
  using lattice units in orthogonal box = (56.452971 45.782089 58.721311) to (98.874318 84.895411 99.504555)
  create_atoms CPU = 0.000 seconds
create_atoms 2 single 66.32240722063038 60.9819 66.28701234807326
Created 1 atoms
  using lattice units in orthogonal box = (56.452971 45.782089 58.721311) to (98.874318 84.895411 99.504555)
  create_atoms CPU = 0.000 seconds
create_atoms 4 single 68.2905429799427 58.835 66.8866575185851
Created 1 atoms
  using lattice units in orthogonal box = (56.452971 45.782089 58.721311) to (98.874318 84.895411 99.504555)
  create_atoms CPU = 0.000 seconds
create_atoms 1 single 70.55383289398281 58.5971 69.3854014192564
Created 1 atoms
  using lattice units in orthogonal box = (56.452971 45.782089 58.721311) to (98.874318 84.895411 99.504555)
  create_atoms CPU = 0.000 seconds
create_atoms 1 single 68.38822326647565 61.1502 68.69359787751065
Created 1 atoms
  using lattice units in orthogonal box = (56.452971 45.782089 58.721311) to (98.874318 84.895411 99.504555)
  create_atoms CPU = 0.000 seconds
create_atoms 2 single 67.64120607449857 58.7933 69.517686653689
Created 1 atoms
  using lattice units in orthogonal box = (56.452971 45.782089 58.721311) to (98.874318 84.895411 99.504555)
  create_atoms CPU = 0.000 seconds
create_atoms 2 single 71.34092813753581 61.2958 70.36435320455716
Created 1 atoms
  using lattice units in orthogonal box = (56.452971 45.782089 58.721311) to (98.874318 84.895411 99.504555)
  create_atoms CPU = 0.000 seconds
create_atoms 3 single 67.46760349570201 61.3427 70.87697131626462
Created 1 atoms
  using lattice units in orthogonal box = (56.452971 45.782089 58.721311) to (98.874318 84.895411 99.504555)
  create_atoms CPU = 0.000 seconds
create_atoms 1 single 73.09720452722063 58.8717 68.57824597409541
Created 1 atoms
  using lattice units in orthogonal box = (56.452971 45.782089 58.721311) to (98.874318 84.895411 99.504555)
  create_atoms CPU = 0.000 seconds
create_atoms 2 single 70.90239123209169 60.8599 67.80198102976004
Created 1 atoms
  using lattice units in orthogonal box = (56.452971 45.782089 58.721311) to (98.874318 84.895411 99.504555)
  create_atoms CPU = 0.000 seconds
create_atoms 2 single 75.7416023495702 58.6853 68.37699590061025
Created 1 atoms
  using lattice units in orthogonal box = (56.452971 45.782089 58.721311) to (98.874318 84.895411 99.504555)
  create_atoms CPU = 0.000 seconds
create_atoms 1 single 74.35503702005731 60.8583 66.99564659458777
Created 1 atoms
  using lattice units in orthogonal box = (56.452971 45.782089 58.721311) to (98.874318 84.895411 99.504555)
  create_atoms CPU = 0.000 seconds
create_atoms 2 single 75.54788555873925 58.8969 70.68495760515258
Created 1 atoms
  using lattice units in orthogonal box = (56.452971 45.782089 58.721311) to (98.874318 84.895411 99.504555)
  create_atoms CPU = 0.000 seconds
create_atoms 1 single 73.63149724928367 61.6277 69.64463532319493
Created 1 atoms
  using lattice units in orthogonal box = (56.452971 45.782089 58.721311) to (98.874318 84.895411 99.504555)
  create_atoms CPU = 0.000 seconds
create_atoms 1 single 76.62330309455588 61.1031 69.75126399548003
Created 1 atoms
  using lattice units in orthogonal box = (56.452971 45.782089 58.721311) to (98.874318 84.895411 99.504555)
  create_atoms CPU = 0.000 seconds
create_atoms 1 single 76.37132876790831 58.5747 66.0445065226549
Created 1 atoms
  using lattice units in orthogonal box = (56.452971 45.782089 58.721311) to (98.874318 84.895411 99.504555)
  create_atoms CPU = 0.000 seconds
create_atoms 1 single 78.53907896848138 58.8983 69.02497803420803
Created 1 atoms
  using lattice units in orthogonal box = (56.452971 45.782089 58.721311) to (98.874318 84.895411 99.504555)
  create_atoms CPU = 0.000 seconds
create_atoms 2 single 81.03062103151862 58.3153 68.86878088385392
Created 1 atoms
  using lattice units in orthogonal box = (56.452971 45.782089 58.721311) to (98.874318 84.895411 99.504555)
  create_atoms CPU = 0.000 seconds
create_atoms 1 single 79.37866286532952 59.7691 66.45757717322998
Created 1 atoms
  using lattice units in orthogonal box = (56.452971 45.782089 58.721311) to (98.874318 84.895411 99.504555)
  create_atoms CPU = 0.000 seconds
create_atoms 3 single 77.31321197707737 60.8937 67.45705420824878
Created 1 atoms
  using lattice units in orthogonal box = (56.452971 45.782089 58.721311) to (98.874318 84.895411 99.504555)
  create_atoms CPU = 0.000 seconds
create_atoms 1 single 78.66069644699141 62.7581 66.49780666267729
Created 1 atoms
  using lattice units in orthogonal box = (56.452971 45.782089 58.721311) to (98.874318 84.895411 99.504555)
  create_atoms CPU = 0.000 seconds
create_atoms 2 single 80.09035839541548 61.1596 68.77785402760311
Created 1 atoms
  using lattice units in orthogonal box = (56.452971 45.782089 58.721311) to (98.874318 84.895411 99.504555)
  create_atoms CPU = 0.000 seconds
create_atoms 3 single 79.51229954154728 60.8179 70.88384727492016
Created 1 atoms
  using lattice units in orthogonal box = (56.452971 45.782089 58.721311) to (98.874318 84.895411 99.504555)
  create_atoms CPU = 0.000 seconds
create_atoms 1 single 84.42727255014327 57.8372 69.10102408441328
Created 1 atoms
  using lattice units in orthogonal box = (56.452971 45.782089 58.721311) to (98.874318 84.895411 99.504555)
  create_atoms CPU = 0.000 seconds
create_atoms 3 single 86.87190005730659 58.9112 70.54035722088916
Created 1 atoms
  using lattice units in orthogonal box = (56.452971 45.782089 58.721311) to (98.874318 84.895411 99.504555)
  create_atoms CPU = 0.000 seconds
create_atoms 1 single 81.89153197707736 58.1343 66.45419050702651
Created 1 atoms
  using lattice units in orthogonal box = (56.452971 45.782089 58.721311) to (98.874318 84.895411 99.504555)
  create_atoms CPU = 0.000 seconds
create_atoms 1 single 82.53711616045845 60.3343 68.45160518333525
Created 1 atoms
  using lattice units in orthogonal box = (56.452971 45.782089 58.721311) to (98.874318 84.895411 99.504555)
  create_atoms CPU = 0.000 seconds
create_atoms 2 single 81.48367799426934 62.6784 67.365614220755
Created 1 atoms
  using lattice units in orthogonal box = (56.452971 45.782089 58.721311) to (98.874318 84.895411 99.504555)
  create_atoms CPU = 0.000 seconds
create_atoms 1 single 84.57795094555874 62.5315 69.54088018587036
Created 1 atoms
  using lattice units in orthogonal box = (56.452971 45.782089 58.721311) to (98.874318 84.895411 99.504555)
  create_atoms CPU = 0.000 seconds
create_atoms 1 single 85.1854406303725 60.3257 67.8147066845852
Created 1 atoms
  using lattice units in orthogonal box = (56.452971 45.782089 58.721311) to (98.874318 84.895411 99.504555)
  create_atoms CPU = 0.000 seconds
create_atoms 1 single 82.21175581661892 60.3686 71.21163551291689
Created 1 atoms
  using lattice units in orthogonal box = (56.452971 45.782089 58.721311) to (98.874318 84.895411 99.504555)
  create_atoms CPU = 0.000 seconds
create_atoms 2 single 84.7958635530086 60.0129 70.89452040477352
Created 1 atoms
  using lattice units in orthogonal box = (56.452971 45.782089 58.721311) to (98.874318 84.895411 99.504555)
  create_atoms CPU = 0.000 seconds
create_atoms 1 single 87.6230646418338 61.4329 70.18927282446249
Created 1 atoms
  using lattice units in orthogonal box = (56.452971 45.782089 58.721311) to (98.874318 84.895411 99.504555)
  create_atoms CPU = 0.000 seconds
create_atoms 1 single 60.191815702005734 63.2493 68.23957935374814
Created 1 atoms
  using lattice units in orthogonal box = (56.452971 45.782089 58.721311) to (98.874318 84.895411 99.504555)
  create_atoms CPU = 0.000 seconds
create_atoms 1 single 59.54918871060172 65.2071 70.39657784661446
Created 1 atoms
  using lattice units in orthogonal box = (56.452971 45.782089 58.721311) to (98.874318 84.895411 99.504555)
  create_atoms CPU = 0.000 seconds
create_atoms 2 single 60.93023312320917 65.7952 68.05875190373241
Created 1 atoms
  using lattice units in orthogonal box = (56.452971 45.782089 58.721311) to (98.874318 84.895411 99.504555)
  create_atoms CPU = 0.000 seconds
create_atoms 2 single 65.42769908309455 66.1616 68.88099340743615
Created 1 atoms
  using lattice units in orthogonal box = (56.452971 45.782089 58.721311) to (98.874318 84.895411 99.504555)
  create_atoms CPU = 0.000 seconds
create_atoms 1 single 62.66769621776505 66.1083 66.39179374788374
Created 1 atoms
  using lattice units in orthogonal box = (56.452971 45.782089 58.721311) to (98.874318 84.895411 99.504555)
  create_atoms CPU = 0.000 seconds
create_atoms 2 single 63.16941266475645 67.1575 69.20775538294697
Created 1 atoms
  using lattice units in orthogonal box = (56.452971 45.782089 58.721311) to (98.874318 84.895411 99.504555)
  create_atoms CPU = 0.000 seconds
create_atoms 1 single 63.356162349570205 64.2342 68.77097806894757
Created 1 atoms
  using lattice units in orthogonal box = (56.452971 45.782089 58.721311) to (98.874318 84.895411 99.504555)
  create_atoms CPU = 0.000 seconds
create_atoms 3 single 61.85957134670487 63.7336 70.73822062817084
Created 1 atoms
  using lattice units in orthogonal box = (56.452971 45.782089 58.721311) to (98.874318 84.895411 99.504555)
  create_atoms CPU = 0.000 seconds
create_atoms 2 single 62.364552148997134 65.9899 70.94809130653755
Created 1 atoms
  using lattice units in orthogonal box = (56.452971 45.782089 58.721311) to (98.874318 84.895411 99.504555)
  create_atoms CPU = 0.000 seconds
create_atoms 1 single 65.88302303724929 66.0931 66.4385913172408
Created 1 atoms
  using lattice units in orthogonal box = (56.452971 45.782089 58.721311) to (98.874318 84.895411 99.504555)
  create_atoms CPU = 0.000 seconds
create_atoms 2 single 69.67552836676218 63.7745 65.99329602460845
Created 1 atoms
  using lattice units in orthogonal box = (56.452971 45.782089 58.721311) to (98.874318 84.895411 99.504555)
  create_atoms CPU = 0.000 seconds
create_atoms 1 single 67.26600034383955 63.4901 66.50919817627079
Created 1 atoms
  using lattice units in orthogonal box = (56.452971 45.782089 58.721311) to (98.874318 84.895411 99.504555)
  create_atoms CPU = 0.000 seconds
create_atoms 1 single 70.30031318051576 63.3969 68.68518252512627
Created 1 atoms
  using lattice units in orthogonal box = (56.452971 45.782089 58.721311) to (98.874318 84.895411 99.504555)
  create_atoms CPU = 0.000 seconds
create_atoms 3 single 68.76862418338109 65.969 67.32682149878796
Created 1 atoms
  using lattice units in orthogonal box = (56.452971 45.782089 58.721311) to (98.874318 84.895411 99.504555)
  create_atoms CPU = 0.000 seconds
create_atoms 1 single 69.84769541547277 65.9202 70.05011163137434
Created 1 atoms
  using lattice units in orthogonal box = (56.452971 45.782089 58.721311) to (98.874318 84.895411 99.504555)
  create_atoms CPU = 0.000 seconds
create_atoms 1 single 67.15264853868194 64.0653 69.41270000138135
Created 1 atoms
  using lattice units in orthogonal box = (56.452971 45.782089 58.721311) to (98.874318 84.895411 99.504555)
  create_atoms CPU = 0.000 seconds
create_atoms 4 single 72.38231203438396 63.0206 67.08062112842036
Created 1 atoms
  using lattice units in orthogonal box = (56.452971 45.782089 58.721311) to (98.874318 84.895411 99.504555)
  create_atoms CPU = 0.000 seconds
create_atoms 4 single 74.96716853868195 63.8901 68.76800190773847
Created 1 atoms
  using lattice units in orthogonal box = (56.452971 45.782089 58.721311) to (98.874318 84.895411 99.504555)
  create_atoms CPU = 0.000 seconds
create_atoms 1 single 74.05194068767908 65.463 66.36377678201863
Created 1 atoms
  using lattice units in orthogonal box = (56.452971 45.782089 58.721311) to (98.874318 84.895411 99.504555)
  create_atoms CPU = 0.000 seconds
create_atoms 1 single 71.58880160458453 65.7318 67.71905902089924
Created 1 atoms
  using lattice units in orthogonal box = (56.452971 45.782089 58.721311) to (98.874318 84.895411 99.504555)
  create_atoms CPU = 0.000 seconds
create_atoms 4 single 74.71664722063038 66.595 69.29560345174008
Created 1 atoms
  using lattice units in orthogonal box = (56.452971 45.782089 58.721311) to (98.874318 84.895411 99.504555)
  create_atoms CPU = 0.000 seconds
create_atoms 4 single 72.62326595988539 67.0032 70.66453498168316
Created 1 atoms
  using lattice units in orthogonal box = (56.452971 45.782089 58.721311) to (98.874318 84.895411 99.504555)
  create_atoms CPU = 0.000 seconds
create_atoms 2 single 72.95782160458452 64.2864 70.1187685916811
Created 1 atoms
  using lattice units in orthogonal box = (56.452971 45.782089 58.721311) to (98.874318 84.895411 99.504555)
  create_atoms CPU = 0.000 seconds
create_atoms 1 single 78.69189329512893 63.1904 69.47242847806078
Created 1 atoms
  using lattice units in orthogonal box = (56.452971 45.782089 58.721311) to (98.874318 84.895411 99.504555)
  create_atoms CPU = 0.000 seconds
create_atoms 2 single 76.0531323782235 63.0442 67.04264941644203
Created 1 atoms
  using lattice units in orthogonal box = (56.452971 45.782089 58.721311) to (98.874318 84.895411 99.504555)
  create_atoms CPU = 0.000 seconds
create_atoms 3 single 80.2032353581662 64.9759 67.88356889738915
Created 1 atoms
  using lattice units in orthogonal box = (56.452971 45.782089 58.721311) to (98.874318 84.895411 99.504555)
  create_atoms CPU = 0.000 seconds
create_atoms 1 single 77.47244286532953 65.5198 67.63952367824194
Created 1 atoms
  using lattice units in orthogonal box = (56.452971 45.782089 58.721311) to (98.874318 84.895411 99.504555)
  create_atoms CPU = 0.000 seconds
create_atoms 2 single 79.14049340974212 67.7981 67.82414829945549
Created 1 atoms
  using lattice units in orthogonal box = (56.452971 45.782089 58.721311) to (98.874318 84.895411 99.504555)
  create_atoms CPU = 0.000 seconds
create_atoms 3 single 78.04755759312322 67.4649 69.57084705045867
Created 1 atoms
  using lattice units in orthogonal box = (56.452971 45.782089 58.721311) to (98.874318 84.895411 99.504555)
  create_atoms CPU = 0.000 seconds
create_atoms 1 single 77.32028418338109 65.2461 70.76521133155003
Created 1 atoms
  using lattice units in orthogonal box = (56.452971 45.782089 58.721311) to (98.874318 84.895411 99.504555)
  create_atoms CPU = 0.000 seconds
create_atoms 1 single 80.41126773638969 65.8817 70.45640894954248
Created 1 atoms
  using lattice units in orthogonal box = (56.452971 45.782089 58.721311) to (98.874318 84.895411 99.504555)
  create_atoms CPU = 0.000 seconds
create_atoms 1 single 83.85541810888252 62.9546 66.39784869655055
Created 1 atoms
  using lattice units in orthogonal box = (56.452971 45.782089 58.721311) to (98.874318 84.895411 99.504555)
  create_atoms CPU = 0.000 seconds
create_atoms 1 single 85.43730217765044 65.9052 66.99913588703983
Created 1 atoms
  using lattice units in orthogonal box = (56.452971 45.782089 58.721311) to (98.874318 84.895411 99.504555)
  create_atoms CPU = 0.000 seconds
create_atoms 1 single 82.8635406303725 65.1432 67.8147066845852
Created 1 atoms
  using lattice units in orthogonal box = (56.452971 45.782089 58.721311) to (98.874318 84.895411 99.504555)
  create_atoms CPU = 0.000 seconds
create_atoms 1 single 80.53595787965617 66.9629 66.07693641720937
Created 1 atoms
  using lattice units in orthogonal box = (56.452971 45.782089 58.721311) to (98.874318 84.895411 99.504555)
  create_atoms CPU = 0.000 seconds
create_atoms 1 single 81.94516148997135 67.7174 69.04499015268308
Created 1 atoms
  using lattice units in orthogonal box = (56.452971 45.782089 58.721311) to (98.874318 84.895411 99.504555)
  create_atoms CPU = 0.000 seconds
create_atoms 1 single 81.8603389111748 63.2498 69.97447608616346
Created 1 atoms
  using lattice units in orthogonal box = (56.452971 45.782089 58.721311) to (98.874318 84.895411 99.504555)
  create_atoms CPU = 0.000 seconds
create_atoms 1 single 85.99010991404012 65.0859 69.90551124711092
Created 1 atoms
  using lattice units in orthogonal box = (56.452971 45.782089 58.721311) to (98.874318 84.895411 99.504555)
  create_atoms CPU = 0.000 seconds
create_atoms 3 single 83.37893037249285 67.752 67.14476253378916
Created 1 atoms
  using lattice units in orthogonal box = (56.452971 45.782089 58.721311) to (98.874318 84.895411 99.504555)
  create_atoms CPU = 0.000 seconds
create_atoms 2 single 83.47598217765044 65.5236 70.50915884131778
Created 1 atoms
  using lattice units in orthogonal box = (56.452971 45.782089 58.721311) to (98.874318 84.895411 99.504555)
  create_atoms CPU = 0.000 seconds
create_atoms 2 single 84.8547705444126 67.5344 69.74038561312948
Created 1 atoms
  using lattice units in orthogonal box = (56.452971 45.782089 58.721311) to (98.874318 84.895411 99.504555)
  create_atoms CPU = 0.000 seconds
create_atoms 1 single 89.08755851002866 64.2096 70.89031272858134
Created 1 atoms
  using lattice units in orthogonal box = (56.452971 45.782089 58.721311) to (98.874318 84.895411 99.504555)
  create_atoms CPU = 0.000 seconds
create_atoms 2 single 86.6956918051576 63.384 68.15655471863877
Created 1 atoms
  using lattice units in orthogonal box = (56.452971 45.782089 58.721311) to (98.874318 84.895411 99.504555)
  create_atoms CPU = 0.000 seconds
create_atoms 1 single 88.19217925501432 66.6786 69.11272347675255
Created 1 atoms
  using lattice units in orthogonal box = (56.452971 45.782089 58.721311) to (98.874318 84.895411 99.504555)
  create_atoms CPU = 0.000 seconds
create_atoms 1 single 60.57075065902579 67.9316 69.45313474332583
Created 1 atoms
  using lattice units in orthogonal box = (56.452971 45.782089 58.721311) to (98.874318 84.895411 99.504555)
  create_atoms CPU = 0.000 seconds
create_atoms 3 single 60.2197611461318 70.4828 68.43826377101853
Created 1 atoms
  using lattice units in orthogonal box = (56.452971 45.782089 58.721311) to (98.874318 84.895411 99.504555)
  create_atoms CPU = 0.000 seconds
create_atoms 1 single 58.45721266475645 68.0998 70.81950061705417
Created 1 atoms
  using lattice units in orthogonal box = (56.452971 45.782089 58.721311) to (98.874318 84.895411 99.504555)
  create_atoms CPU = 0.000 seconds
create_atoms 3 single 60.7487612034384 72.4931 69.85265872908703
Created 1 atoms
  using lattice units in orthogonal box = (56.452971 45.782089 58.721311) to (98.874318 84.895411 99.504555)
  create_atoms CPU = 0.000 seconds
create_atoms 1 single 61.2137929512894 68.669 66.89579125470962
Created 1 atoms
  using lattice units in orthogonal box = (56.452971 45.782089 58.721311) to (98.874318 84.895411 99.504555)
  create_atoms CPU = 0.000 seconds
create_atoms 1 single 62.99618085959885 69.9764 69.49664827272804
Created 1 atoms
  using lattice units in orthogonal box = (56.452971 45.782089 58.721311) to (98.874318 84.895411 99.504555)
  create_atoms CPU = 0.000 seconds
create_atoms 1 single 64.39825243553008 68.5007 67.63326347707795
Created 1 atoms
  using lattice units in orthogonal box = (56.452971 45.782089 58.721311) to (98.874318 84.895411 99.504555)
  create_atoms CPU = 0.000 seconds
create_atoms 1 single 62.265399312320916 72.5572 68.09159230328125
Created 1 atoms
  using lattice units in orthogonal box = (56.452971 45.782089 58.721311) to (98.874318 84.895411 99.504555)
  create_atoms CPU = 0.000 seconds
create_atoms 1 single 65.76838779369628 70.9148 69.43527777607117
Created 1 atoms
  using lattice units in orthogonal box = (56.452971 45.782089 58.721311) to (98.874318 84.895411 99.504555)
  create_atoms CPU = 0.000 seconds
create_atoms 2 single 63.14014876790831 70.7724 66.47430525175017
Created 1 atoms
  using lattice units in orthogonal box = (56.452971 45.782089 58.721311) to (98.874318 84.895411 99.504555)
  create_atoms CPU = 0.000 seconds
create_atoms 3 single 65.53921661891117 68.3107 70.45445905081927
Created 1 atoms
  using lattice units in orthogonal box = (56.452971 45.782089 58.721311) to (98.874318 84.895411 99.504555)
  create_atoms CPU = 0.000 seconds
create_atoms 3 single 64.73725255014327 72.7832 67.2385629250005
Created 1 atoms
  using lattice units in orthogonal box = (56.452971 45.782089 58.721311) to (98.874318 84.895411 99.504555)
  create_atoms CPU = 0.000 seconds
create_atoms 1 single 67.54774504297994 68.008 68.73618777067554
Created 1 atoms
  using lattice units in orthogonal box = (56.452971 45.782089 58.721311) to (98.874318 84.895411 99.504555)
  create_atoms CPU = 0.000 seconds
create_atoms 2 single 68.64677931232092 70.5298 69.2735388082932
Created 1 atoms
  using lattice units in orthogonal box = (56.452971 45.782089 58.721311) to (98.874318 84.895411 99.504555)
  create_atoms CPU = 0.000 seconds
create_atoms 1 single 70.40409214899714 68.5181 68.04694988514456
Created 1 atoms
  using lattice units in orthogonal box = (56.452971 45.782089 58.721311) to (98.874318 84.895411 99.504555)
  create_atoms CPU = 0.000 seconds
create_atoms 1 single 66.18348320916905 70.5363 66.77777106883103
Created 1 atoms
  using lattice units in orthogonal box = (56.452971 45.782089 58.721311) to (98.874318 84.895411 99.504555)
  create_atoms CPU = 0.000 seconds
create_atoms 1 single 69.03229787965616 71.3503 66.75745107161019
Created 1 atoms
  using lattice units in orthogonal box = (56.452971 45.782089 58.721311) to (98.874318 84.895411 99.504555)
  create_atoms CPU = 0.000 seconds
create_atoms 3 single 70.28896458452722 68.7233 70.56570590429091
Created 1 atoms
  using lattice units in orthogonal box = (56.452971 45.782089 58.721311) to (98.874318 84.895411 99.504555)
  create_atoms CPU = 0.000 seconds
create_atoms 2 single 68.03867048710602 69.3844 71.19131551569605
Created 1 atoms
  using lattice units in orthogonal box = (56.452971 45.782089 58.721311) to (98.874318 84.895411 99.504555)
  create_atoms CPU = 0.000 seconds
create_atoms 2 single 73.77006521489972 72.5546 66.24585922238865
Created 1 atoms
  using lattice units in orthogonal box = (56.452971 45.782089 58.721311) to (98.874318 84.895411 99.504555)
  create_atoms CPU = 0.000 seconds
create_atoms 1 single 72.84325570200573 68.1352 66.77110036267267
Created 1 atoms
  using lattice units in orthogonal box = (56.452971 45.782089 58.721311) to (98.874318 84.895411 99.504555)
  create_atoms CPU = 0.000 seconds
create_atoms 1 single 71.41293065902579 71.0547 69.73966722938935
Created 1 atoms
  using lattice units in orthogonal box = (56.452971 45.782089 58.721311) to (98.874318 84.895411 99.504555)
  create_atoms CPU = 0.000 seconds
create_atoms 4 single 73.44206567335243 69.0721 69.50229271640049
Created 1 atoms
  using lattice units in orthogonal box = (56.452971 45.782089 58.721311) to (98.874318 84.895411 99.504555)
  create_atoms CPU = 0.000 seconds
create_atoms 5 single 74.82301209169054 70.5618 67.95776767511978
Created 1 atoms
  using lattice units in orthogonal box = (56.452971 45.782089 58.721311) to (98.874318 84.895411 99.504555)
  create_atoms CPU = 0.000 seconds
create_atoms 2 single 72.01552595988538 70.7689 67.29777827043696
Created 1 atoms
  using lattice units in orthogonal box = (56.452971 45.782089 58.721311) to (98.874318 84.895411 99.504555)
  create_atoms CPU = 0.000 seconds
create_atoms 4 single 73.57222131805158 72.7361 68.95652632639845
Created 1 atoms
  using lattice units in orthogonal box = (56.452971 45.782089 58.721311) to (98.874318 84.895411 99.504555)
  create_atoms CPU = 0.000 seconds
create_atoms 3 single 76.1948394269341 68.8437 69.81006883592215
Created 1 atoms
  using lattice units in orthogonal box = (56.452971 45.782089 58.721311) to (98.874318 84.895411 99.504555)
  create_atoms CPU = 0.000 seconds
create_atoms 2 single 75.12572555873925 70.8851 70.82822384818434
Created 1 atoms
  using lattice units in orthogonal box = (56.452971 45.782089 58.721311) to (98.874318 84.895411 99.504555)
  create_atoms CPU = 0.000 seconds
create_atoms 1 single 78.74716286532951 69.934 66.0994115656506
Created 1 atoms
  using lattice units in orthogonal box = (56.452971 45.782089 58.721311) to (98.874318 84.895411 99.504555)
  create_atoms CPU = 0.000 seconds
create_atoms 1 single 75.95356435530086 68.1864 67.05711971749322
Created 1 atoms
  using lattice units in orthogonal box = (56.452971 45.782089 58.721311) to (98.874318 84.895411 99.504555)
  create_atoms CPU = 0.000 seconds
create_atoms 1 single 80.57541661891118 68.9468 70.99170746218833
Created 1 atoms
  using lattice units in orthogonal box = (56.452971 45.782089 58.721311) to (98.874318 84.895411 99.504555)
  create_atoms CPU = 0.000 seconds
create_atoms 2 single 80.79431111747851 70.3874 68.80556311472243
Created 1 atoms
  using lattice units in orthogonal box = (56.452971 45.782089 58.721311) to (98.874318 84.895411 99.504555)
  create_atoms CPU = 0.000 seconds
create_atoms 1 single 77.9979629799427 70.114 68.7491186779979
Created 1 atoms
  using lattice units in orthogonal box = (56.452971 45.782089 58.721311) to (98.874318 84.895411 99.504555)
  create_atoms CPU = 0.000 seconds
create_atoms 5 single 76.5858883094556 72.5428 69.44995332961956
Created 1 atoms
  using lattice units in orthogonal box = (56.452971 45.782089 58.721311) to (98.874318 84.895411 99.504555)
  create_atoms CPU = 0.000 seconds
create_atoms 2 single 78.81920687679083 72.2834 67.6501968080953
Created 1 atoms
  using lattice units in orthogonal box = (56.452971 45.782089 58.721311) to (98.874318 84.895411 99.504555)
  create_atoms CPU = 0.000 seconds
create_atoms 1 single 79.89074378223496 72.3647 70.39165178668213
Created 1 atoms
  using lattice units in orthogonal box = (56.452971 45.782089 58.721311) to (98.874318 84.895411 99.504555)
  create_atoms CPU = 0.000 seconds
create_atoms 1 single 86.045568252149 68.8516 68.14300805382487
Created 1 atoms
  using lattice units in orthogonal box = (56.452971 45.782089 58.721311) to (98.874318 84.895411 99.504555)
  create_atoms CPU = 0.000 seconds
create_atoms 2 single 81.49459839541548 69.4402 66.77212662515858
Created 1 atoms
  using lattice units in orthogonal box = (56.452971 45.782089 58.721311) to (98.874318 84.895411 99.504555)
  create_atoms CPU = 0.000 seconds
create_atoms 1 single 83.68923512893983 70.2037 69.03113560912344
Created 1 atoms
  using lattice units in orthogonal box = (56.452971 45.782089 58.721311) to (98.874318 84.895411 99.504555)
  create_atoms CPU = 0.000 seconds
create_atoms 1 single 81.16418641833812 72.0864 66.82928944562326
Created 1 atoms
  using lattice units in orthogonal box = (56.452971 45.782089 58.721311) to (98.874318 84.895411 99.504555)
  create_atoms CPU = 0.000 seconds
create_atoms 1 single 83.7330687679083 70.576 66.18777276568666
Created 1 atoms
  using lattice units in orthogonal box = (56.452971 45.782089 58.721311) to (98.874318 84.895411 99.504555)
  create_atoms CPU = 0.000 seconds
create_atoms 2 single 85.06433467048711 72.3242 70.78902062122293
Created 1 atoms
  using lattice units in orthogonal box = (56.452971 45.782089 58.721311) to (98.874318 84.895411 99.504555)
  create_atoms CPU = 0.000 seconds
create_atoms 2 single 86.32800578796562 71.4335 69.0717756035651
Created 1 atoms
  using lattice units in orthogonal box = (56.452971 45.782089 58.721311) to (98.874318 84.895411 99.504555)
  create_atoms CPU = 0.000 seconds
create_atoms 3 single 88.45319667621777 69.2503 70.36455845705436
Created 1 atoms
  using lattice units in orthogonal box = (56.452971 45.782089 58.721311) to (98.874318 84.895411 99.504555)
  create_atoms CPU = 0.000 seconds
create_atoms 1 single 64.94561489971348 73.7825 69.74890359176246
Created 1 atoms
  using lattice units in orthogonal box = (56.452971 45.782089 58.721311) to (98.874318 84.895411 99.504555)
  create_atoms CPU = 0.000 seconds
create_atoms 1 single 64.15544796561605 76.6121 69.23720911629232
Created 1 atoms
  using lattice units in orthogonal box = (56.452971 45.782089 58.721311) to (98.874318 84.895411 99.504555)
  create_atoms CPU = 0.000 seconds
create_atoms 1 single 62.31270515759312 74.8344 70.34721462104262
Created 1 atoms
  using lattice units in orthogonal box = (56.452971 45.782089 58.721311) to (98.874318 84.895411 99.504555)
  create_atoms CPU = 0.000 seconds
create_atoms 2 single 68.54457197707737 74.3833 66.59745675005826
Created 1 atoms
  using lattice units in orthogonal box = (56.452971 45.782089 58.721311) to (98.874318 84.895411 99.504555)
  create_atoms CPU = 0.000 seconds
create_atoms 1 single 67.66242653295129 72.9615 68.54776597826415
Created 1 atoms
  using lattice units in orthogonal box = (56.452971 45.782089 58.721311) to (98.874318 84.895411 99.504555)
  create_atoms CPU = 0.000 seconds
create_atoms 2 single 70.43282338108882 73.3799 68.4779801292229
Created 1 atoms
  using lattice units in orthogonal box = (56.452971 45.782089 58.721311) to (98.874318 84.895411 99.504555)
  create_atoms CPU = 0.000 seconds
create_atoms 3 single 67.45320567335244 74.7144 70.36189017459101
Created 1 atoms
  using lattice units in orthogonal box = (56.452971 45.782089 58.721311) to (98.874318 84.895411 99.504555)
  create_atoms CPU = 0.000 seconds
create_atoms 1 single 69.30392722063037 75.6734 69.40305313401387
Created 1 atoms
  using lattice units in orthogonal box = (56.452971 45.782089 58.721311) to (98.874318 84.895411 99.504555)
  create_atoms CPU = 0.000 seconds
create_atoms 1 single 65.92902538681949 75.3395 67.48045299292733
Created 1 atoms
  using lattice units in orthogonal box = (56.452971 45.782089 58.721311) to (98.874318 84.895411 99.504555)
  create_atoms CPU = 0.000 seconds
create_atoms 1 single 68.07137266475644 77.0648 66.73641269064923
Created 1 atoms
  using lattice units in orthogonal box = (56.452971 45.782089 58.721311) to (98.874318 84.895411 99.504555)
  create_atoms CPU = 0.000 seconds
create_atoms 2 single 66.95875277936963 77.1978 69.49356948527033
Created 1 atoms
  using lattice units in orthogonal box = (56.452971 45.782089 58.721311) to (98.874318 84.895411 99.504555)
  create_atoms CPU = 0.000 seconds
create_atoms 5 single 70.25272567335243 73.236 70.97077170747596
Created 1 atoms
  using lattice units in orthogonal box = (56.452971 45.782089 58.721311) to (98.874318 84.895411 99.504555)
  create_atoms CPU = 0.000 seconds
create_atoms 1 single 71.15919679083095 73.3003 66.20911902539339
Created 1 atoms
  using lattice units in orthogonal box = (56.452971 45.782089 58.721311) to (98.874318 84.895411 99.504555)
  create_atoms CPU = 0.000 seconds
create_atoms 1 single 73.81936429799427 75.0743 67.25446999353196
Created 1 atoms
  using lattice units in orthogonal box = (56.452971 45.782089 58.721311) to (98.874318 84.895411 99.504555)
  create_atoms CPU = 0.000 seconds
create_atoms 4 single 72.38163214899713 74.691 70.16012696986292
Created 1 atoms
  using lattice units in orthogonal box = (56.452971 45.782089 58.721311) to (98.874318 84.895411 99.504555)
  create_atoms CPU = 0.000 seconds
create_atoms 1 single 71.12179461318053 76.0326 67.61961418601547
Created 1 atoms
  using lattice units in orthogonal box = (56.452971 45.782089 58.721311) to (98.874318 84.895411 99.504555)
  create_atoms CPU = 0.000 seconds
create_atoms 1 single 75.18171661891118 75.278 70.27537624702957
Created 1 atoms
  using lattice units in orthogonal box = (56.452971 45.782089 58.721311) to (98.874318 84.895411 99.504555)
  create_atoms CPU = 0.000 seconds
create_atoms 1 single 71.91603381088825 77.4961 70.34670148979967
Created 1 atoms
  using lattice units in orthogonal box = (56.452971 45.782089 58.721311) to (98.874318 84.895411 99.504555)
  create_atoms CPU = 0.000 seconds
create_atoms 3 single 76.33984859598854 76.5444 68.49901851018386
Created 1 atoms
  using lattice units in orthogonal box = (56.452971 45.782089 58.721311) to (98.874318 84.895411 99.504555)
  create_atoms CPU = 0.000 seconds
create_atoms 1 single 76.7059306590258 74.3001 67.23250797633368
Created 1 atoms
  using lattice units in orthogonal box = (56.452971 45.782089 58.721311) to (98.874318 84.895411 99.504555)
  create_atoms CPU = 0.000 seconds
create_atoms 1 single 79.85424011461319 74.7428 67.97911393482653
Created 1 atoms
  using lattice units in orthogonal box = (56.452971 45.782089 58.721311) to (98.874318 84.895411 99.504555)
  create_atoms CPU = 0.000 seconds
create_atoms 1 single 78.22291191977078 77.2708 67.11715607291843
Created 1 atoms
  using lattice units in orthogonal box = (56.452971 45.782089 58.721311) to (98.874318 84.895411 99.504555)
  create_atoms CPU = 0.000 seconds
create_atoms 1 single 78.22545885386819 74.9744 70.24345948371806
Created 1 atoms
  using lattice units in orthogonal box = (56.452971 45.782089 58.721311) to (98.874318 84.895411 99.504555)
  create_atoms CPU = 0.000 seconds
create_atoms 2 single 77.17553249283668 77.4736 70.94593615531716
Created 1 atoms
  using lattice units in orthogonal box = (56.452971 45.782089 58.721311) to (98.874318 84.895411 99.504555)
  create_atoms CPU = 0.000 seconds
create_atoms 2 single 79.21848934097422 77.3232 69.83747004429569
Created 1 atoms
  using lattice units in orthogonal box = (56.452971 45.782089 58.721311) to (98.874318 84.895411 99.504555)
  create_atoms CPU = 0.000 seconds
create_atoms 1 single 81.55524498567335 75.3565 70.90344888840086
Created 1 atoms
  using lattice units in orthogonal box = (56.452971 45.782089 58.721311) to (98.874318 84.895411 99.504555)
  create_atoms CPU = 0.000 seconds
create_atoms 1 single 82.38424790830945 72.8912 69.61364219612074
Created 1 atoms
  using lattice units in orthogonal box = (56.452971 45.782089 58.721311) to (98.874318 84.895411 99.504555)
  create_atoms CPU = 0.000 seconds
create_atoms 3 single 81.80177214899713 74.7518 66.72173713710085
Created 1 atoms
  using lattice units in orthogonal box = (56.452971 45.782089 58.721311) to (98.874318 84.895411 99.504555)
  create_atoms CPU = 0.000 seconds
create_atoms 2 single 83.40991169054442 75.2713 69.16013680360116
Created 1 atoms
  using lattice units in orthogonal box = (56.452971 45.782089 58.721311) to (98.874318 84.895411 99.504555)
  create_atoms CPU = 0.000 seconds
create_atoms 1 single 81.46398928366763 77.2875 68.60215789001688
Created 1 atoms
  using lattice units in orthogonal box = (56.452971 45.782089 58.721311) to (98.874318 84.895411 99.504555)
  create_atoms CPU = 0.000 seconds
create_atoms 2 single 84.44483512893983 77.1363 70.82196364702035
Created 1 atoms
  using lattice units in orthogonal box = (56.452971 45.782089 58.721311) to (98.874318 84.895411 99.504555)
  create_atoms CPU = 0.000 seconds
create_atoms 1 single 84.22698601719198 73.1677 67.85257577031496
Created 1 atoms
  using lattice units in orthogonal box = (56.452971 45.782089 58.721311) to (98.874318 84.895411 99.504555)
  create_atoms CPU = 0.000 seconds
create_atoms 1 single 86.37986979942694 74.5456 70.33602835994631
Created 1 atoms
  using lattice units in orthogonal box = (56.452971 45.782089 58.721311) to (98.874318 84.895411 99.504555)
  create_atoms CPU = 0.000 seconds
create_atoms 3 single 65.24588573065903 78.6716 70.98832079598486
Created 1 atoms
  using lattice units in orthogonal box = (56.452971 45.782089 58.721311) to (98.874318 84.895411 99.504555)
  create_atoms CPU = 0.000 seconds
create_atoms 2 single 69.18975432664756 78.4492 69.17943053833609
Created 1 atoms
  using lattice units in orthogonal box = (56.452971 45.782089 58.721311) to (98.874318 84.895411 99.504555)
  create_atoms CPU = 0.000 seconds
create_atoms 1 single 67.51185318051577 79.7618 70.44019400226524
Created 1 atoms
  using lattice units in orthogonal box = (56.452971 45.782089 58.721311) to (98.874318 84.895411 99.504555)
  create_atoms CPU = 0.000 seconds
create_atoms 4 single 70.77164750716332 79.0131 67.59252085638768
Created 1 atoms
  using lattice units in orthogonal box = (56.452971 45.782089 58.721311) to (98.874318 84.895411 99.504555)
  create_atoms CPU = 0.000 seconds
create_atoms 1 single 74.0545652722063 77.938 68.73475100319529
Created 1 atoms
  using lattice units in orthogonal box = (56.452971 45.782089 58.721311) to (98.874318 84.895411 99.504555)
  create_atoms CPU = 0.000 seconds
create_atoms 2 single 72.92947971346705 79.9974 70.04108052149842
Created 1 atoms
  using lattice units in orthogonal box = (56.452971 45.782089 58.721311) to (98.874318 84.895411 99.504555)
  create_atoms CPU = 0.000 seconds
create_atoms 1 single 75.86716395415473 80.2427 70.94573090281997
Created 1 atoms
  using lattice units in orthogonal box = (56.452971 45.782089 58.721311) to (98.874318 84.895411 99.504555)
  create_atoms CPU = 0.000 seconds
create_atoms 1 single 76.78798825214899 79.1267 68.57280678292013
Created 1 atoms
  using lattice units in orthogonal box = (56.452971 45.782089 58.721311) to (98.874318 84.895411 99.504555)
  create_atoms CPU = 0.000 seconds
create_atoms 2 single 79.67846326647565 79.5126 68.83686412054242
Created 1 atoms
  using lattice units in orthogonal box = (56.452971 45.782089 58.721311) to (98.874318 84.895411 99.504555)
  create_atoms CPU = 0.000 seconds
create_atoms 1 single 66.32301363896849 52.4507 74.44877527219379
Created 1 atoms
  using lattice units in orthogonal box = (56.452971 45.782089 58.721311) to (98.874318 84.895411 99.504555)
  create_atoms CPU = 0.000 seconds
create_atoms 5 single 68.5868728939828 51.0509 73.82665495324072
Created 1 atoms
  using lattice units in orthogonal box = (56.452971 45.782089 58.721311) to (98.874318 84.895411 99.504555)
  create_atoms CPU = 0.000 seconds
create_atoms 3 single 71.3309182234957 51.3541 74.24095711879887
Created 1 atoms
  using lattice units in orthogonal box = (56.452971 45.782089 58.721311) to (98.874318 84.895411 99.504555)
  create_atoms CPU = 0.000 seconds
create_atoms 1 single 69.60947054441262 52.2996 71.71029645481609
Created 1 atoms
  using lattice units in orthogonal box = (56.452971 45.782089 58.721311) to (98.874318 84.895411 99.504555)
  create_atoms CPU = 0.000 seconds
create_atoms 3 single 70.55064636103153 50.2432 76.19567927569415
Created 1 atoms
  using lattice units in orthogonal box = (56.452971 45.782089 58.721311) to (98.874318 84.895411 99.504555)
  create_atoms CPU = 0.000 seconds
create_atoms 1 single 74.16859621776504 50.1446 75.34593393736827
Created 1 atoms
  using lattice units in orthogonal box = (56.452971 45.782089 58.721311) to (98.874318 84.895411 99.504555)
  create_atoms CPU = 0.000 seconds
create_atoms 1 single 77.3368241260745 49.3359 76.29922916052153
Created 1 atoms
  using lattice units in orthogonal box = (56.452971 45.782089 58.721311) to (98.874318 84.895411 99.504555)
  create_atoms CPU = 0.000 seconds
create_atoms 1 single 75.6995441260745 49.9638 73.14737181382297
Created 1 atoms
  using lattice units in orthogonal box = (56.452971 45.782089 58.721311) to (98.874318 84.895411 99.504555)
  create_atoms CPU = 0.000 seconds
create_atoms 1 single 72.78389856733524 51.352 72.44797392968158
Created 1 atoms
  using lattice units in orthogonal box = (56.452971 45.782089 58.721311) to (98.874318 84.895411 99.504555)
  create_atoms CPU = 0.000 seconds
create_atoms 1 single 78.0274017765043 52.0675 75.72298277468823
Created 1 atoms
  using lattice units in orthogonal box = (56.452971 45.782089 58.721311) to (98.874318 84.895411 99.504555)
  create_atoms CPU = 0.000 seconds
create_atoms 3 single 75.32902309455588 52.2057 74.29996721173818
Created 1 atoms
  using lattice units in orthogonal box = (56.452971 45.782089 58.721311) to (98.874318 84.895411 99.504555)
  create_atoms CPU = 0.000 seconds
create_atoms 1 single 77.00531690544413 52.5203 72.69119813884008
Created 1 atoms
  using lattice units in orthogonal box = (56.452971 45.782089 58.721311) to (98.874318 84.895411 99.504555)
  create_atoms CPU = 0.000 seconds
create_atoms 3 single 79.43423014326648 51.4888 72.23215092889664
Created 1 atoms
  using lattice units in orthogonal box = (56.452971 45.782089 58.721311) to (98.874318 84.895411 99.504555)
  create_atoms CPU = 0.000 seconds
create_atoms 2 single 78.6414276790831 50.0711 74.09214905834327
Created 1 atoms
  using lattice units in orthogonal box = (56.452971 45.782089 58.721311) to (98.874318 84.895411 99.504555)
  create_atoms CPU = 0.000 seconds
create_atoms 2 single 82.91039186246418 50.3061 76.01793061313612
Created 1 atoms
  using lattice units in orthogonal box = (56.452971 45.782089 58.721311) to (98.874318 84.895411 99.504555)
  create_atoms CPU = 0.000 seconds
create_atoms 1 single 80.68640601719198 52.0722 74.90843823962877
Created 1 atoms
  using lattice units in orthogonal box = (56.452971 45.782089 58.721311) to (98.874318 84.895411 99.504555)
  create_atoms CPU = 0.000 seconds
create_atoms 2 single 84.45416979942694 50.7567 74.45493284710919
Created 1 atoms
  using lattice units in orthogonal box = (56.452971 45.782089 58.721311) to (98.874318 84.895411 99.504555)
  create_atoms CPU = 0.000 seconds
create_atoms 1 single 87.02107346704871 52.2427 75.79297387622667
Created 1 atoms
  using lattice units in orthogonal box = (56.452971 45.782089 58.721311) to (98.874318 84.895411 99.504555)
  create_atoms CPU = 0.000 seconds
create_atoms 2 single 60.7045211461318 55.8902 75.8164752871538
Created 1 atoms
  using lattice units in orthogonal box = (56.452971 45.782089 58.721311) to (98.874318 84.895411 99.504555)
  create_atoms CPU = 0.000 seconds
create_atoms 1 single 62.34356435530086 55.9696 74.04134906529119
Created 1 atoms
  using lattice units in orthogonal box = (56.452971 45.782089 58.721311) to (98.874318 84.895411 99.504555)
  create_atoms CPU = 0.000 seconds
create_atoms 1 single 62.67345518624642 53.6964 76.06873060618823
Created 1 atoms
  using lattice units in orthogonal box = (56.452971 45.782089 58.721311) to (98.874318 84.895411 99.504555)
  create_atoms CPU = 0.000 seconds
create_atoms 1 single 66.40359839541547 56.0551 71.78644513126991
Created 1 atoms
  using lattice units in orthogonal box = (56.452971 45.782089 58.721311) to (98.874318 84.895411 99.504555)
  create_atoms CPU = 0.000 seconds
create_atoms 2 single 65.09456275071634 54.4749 75.62733511100227
Created 1 atoms
  using lattice units in orthogonal box = (56.452971 45.782089 58.721311) to (98.874318 84.895411 99.504555)
  create_atoms CPU = 0.000 seconds
create_atoms 1 single 63.295128194842405 53.2769 73.39049339673288
Created 1 atoms
  using lattice units in orthogonal box = (56.452971 45.782089 58.721311) to (98.874318 84.895411 99.504555)
  create_atoms CPU = 0.000 seconds
create_atoms 1 single 67.32793959885387 55.2581 74.76958492528638
Created 1 atoms
  using lattice units in orthogonal box = (56.452971 45.782089 58.721311) to (98.874318 84.895411 99.504555)
  create_atoms CPU = 0.000 seconds
create_atoms 3 single 61.862430601719204 57.448 71.72784554332499
Created 1 atoms
  using lattice units in orthogonal box = (56.452971 45.782089 58.721311) to (98.874318 84.895411 99.504555)
  create_atoms CPU = 0.000 seconds
create_atoms 3 single 64.70409507163325 55.5814 73.38320693308299
Created 1 atoms
  using lattice units in orthogonal box = (56.452971 45.782089 58.721311) to (98.874318 84.895411 99.504555)
  create_atoms CPU = 0.000 seconds
create_atoms 1 single 65.2903175931232 57.1546 75.6954789400661
Created 1 atoms
  using lattice units in orthogonal box = (56.452971 45.782089 58.721311) to (98.874318 84.895411 99.504555)
  create_atoms CPU = 0.000 seconds
create_atoms 2 single 65.21372613180516 53.6072 71.89912875222183
Created 1 atoms
  using lattice units in orthogonal box = (56.452971 45.782089 58.721311) to (98.874318 84.895411 99.504555)
  create_atoms CPU = 0.000 seconds
create_atoms 2 single 71.63651856733524 57.5289 71.98235863982838
Created 1 atoms
  using lattice units in orthogonal box = (56.452971 45.782089 58.721311) to (98.874318 84.895411 99.504555)
  create_atoms CPU = 0.000 seconds
create_atoms 3 single 67.94488624641835 53.6188 72.97290719121985
Created 1 atoms
  using lattice units in orthogonal box = (56.452971 45.782089 58.721311) to (98.874318 84.895411 99.504555)
  create_atoms CPU = 0.000 seconds
create_atoms 1 single 69.64844441260745 53.1349 75.92135931321286
Created 1 atoms
  using lattice units in orthogonal box = (56.452971 45.782089 58.721311) to (98.874318 84.895411 99.504555)
  create_atoms CPU = 0.000 seconds
create_atoms 3 single 70.53357020057307 53.75 73.96889493378657
Created 1 atoms
  using lattice units in orthogonal box = (56.452971 45.782089 58.721311) to (98.874318 84.895411 99.504555)
  create_atoms CPU = 0.000 seconds
create_atoms 2 single 69.2083441260745 55.837 73.50553742140237
Created 1 atoms
  using lattice units in orthogonal box = (56.452971 45.782089 58.721311) to (98.874318 84.895411 99.504555)
  create_atoms CPU = 0.000 seconds
create_atoms 1 single 71.36745616045846 54.8165 71.99744469837113
Created 1 atoms
  using lattice units in orthogonal box = (56.452971 45.782089 58.721311) to (98.874318 84.895411 99.504555)
  create_atoms CPU = 0.000 seconds
create_atoms 3 single 71.81810194842407 55.8493 74.77276633899268
Created 1 atoms
  using lattice units in orthogonal box = (56.452971 45.782089 58.721311) to (98.874318 84.895411 99.504555)
  create_atoms CPU = 0.000 seconds
create_atoms 1 single 70.13647163323782 56.3411 76.37753298819577
Created 1 atoms
  using lattice units in orthogonal box = (56.452971 45.782089 58.721311) to (98.874318 84.895411 99.504555)
  create_atoms CPU = 0.000 seconds
create_atoms 1 single 73.27345736389685 53.5707 74.65823544556615
Created 1 atoms
  using lattice units in orthogonal box = (56.452971 45.782089 58.721311) to (98.874318 84.895411 99.504555)
  create_atoms CPU = 0.000 seconds
create_atoms 5 single 74.15645008595989 53.9243 72.14296871887187
Created 1 atoms
  using lattice units in orthogonal box = (56.452971 45.782089 58.721311) to (98.874318 84.895411 99.504555)
  create_atoms CPU = 0.000 seconds
create_atoms 4 single 76.64560280802293 55.6113 72.70792621736025
Created 1 atoms
  using lattice units in orthogonal box = (56.452971 45.782089 58.721311) to (98.874318 84.895411 99.504555)
  create_atoms CPU = 0.000 seconds
create_atoms 1 single 73.91252848137536 56.4106 73.83640444685678
Created 1 atoms
  using lattice units in orthogonal box = (56.452971 45.782089 58.721311) to (98.874318 84.895411 99.504555)
  create_atoms CPU = 0.000 seconds
create_atoms 1 single 76.4716900286533 54.709 75.16982729478771
Created 1 atoms
  using lattice units in orthogonal box = (56.452971 45.782089 58.721311) to (98.874318 84.895411 99.504555)
  create_atoms CPU = 0.000 seconds
create_atoms 4 single 78.38294148997134 57.4458 75.59942077138578
Created 1 atoms
  using lattice units in orthogonal box = (56.452971 45.782089 58.721311) to (98.874318 84.895411 99.504555)
  create_atoms CPU = 0.000 seconds
create_atoms 3 single 78.83815908309457 54.1955 74.4683768856745
Created 1 atoms
  using lattice units in orthogonal box = (56.452971 45.782089 58.721311) to (98.874318 84.895411 99.504555)
  create_atoms CPU = 0.000 seconds
create_atoms 1 single 81.62382865329513 54.8248 75.21426446042722
Created 1 atoms
  using lattice units in orthogonal box = (56.452971 45.782089 58.721311) to (98.874318 84.895411 99.504555)
  create_atoms CPU = 0.000 seconds
create_atoms 1 single 79.14078492836676 54.237 71.9603966226301
Created 1 atoms
  using lattice units in orthogonal box = (56.452971 45.782089 58.721311) to (98.874318 84.895411 99.504555)
  create_atoms CPU = 0.000 seconds
create_atoms 1 single 79.5787200573066 56.7768 73.65639800682979
Created 1 atoms
  using lattice units in orthogonal box = (56.452971 45.782089 58.721311) to (98.874318 84.895411 99.504555)
  create_atoms CPU = 0.000 seconds
create_atoms 3 single 81.55558722063037 55.648 72.48327735919656
Created 1 atoms
  using lattice units in orthogonal box = (56.452971 45.782089 58.721311) to (98.874318 84.895411 99.504555)
  create_atoms CPU = 0.000 seconds
create_atoms 2 single 81.68718624641834 57.3333 76.37548046322398
Created 1 atoms
  using lattice units in orthogonal box = (56.452971 45.782089 58.721311) to (98.874318 84.895411 99.504555)
  create_atoms CPU = 0.000 seconds
create_atoms 1 single 82.02078068767908 52.8225 72.77494115768957
Created 1 atoms
  using lattice units in orthogonal box = (56.452971 45.782089 58.721311) to (98.874318 84.895411 99.504555)
  create_atoms CPU = 0.000 seconds
create_atoms 1 single 85.0912600573066 52.8583 72.90425023091308
Created 1 atoms
  using lattice units in orthogonal box = (56.452971 45.782089 58.721311) to (98.874318 84.895411 99.504555)
  create_atoms CPU = 0.000 seconds
create_atoms 1 single 84.07868005730658 53.0339 75.66212540927431
Created 1 atoms
  using lattice units in orthogonal box = (56.452971 45.782089 58.721311) to (98.874318 84.895411 99.504555)
  create_atoms CPU = 0.000 seconds
create_atoms 1 single 84.37512871060171 55.4742 73.76333455786065
Created 1 atoms
  using lattice units in orthogonal box = (56.452971 45.782089 58.721311) to (98.874318 84.895411 99.504555)
  create_atoms CPU = 0.000 seconds
create_atoms 3 single 86.35320166189112 54.7137 76.11768332676569
Created 1 atoms
  using lattice units in orthogonal box = (56.452971 45.782089 58.721311) to (98.874318 84.895411 99.504555)
  create_atoms CPU = 0.000 seconds
create_atoms 2 single 87.32250246418339 56.7794 75.50377310769983
Created 1 atoms
  using lattice units in orthogonal box = (56.452971 45.782089 58.721311) to (98.874318 84.895411 99.504555)
  create_atoms CPU = 0.000 seconds
create_atoms 5 single 87.48201724928367 54.6621 74.01425573566338
Created 1 atoms
  using lattice units in orthogonal box = (56.452971 45.782089 58.721311) to (98.874318 84.895411 99.504555)
  create_atoms CPU = 0.000 seconds
create_atoms 5 single 85.58075965616045 55.8221 71.4203773025491
Created 1 atoms
  using lattice units in orthogonal box = (56.452971 45.782089 58.721311) to (98.874318 84.895411 99.504555)
  create_atoms CPU = 0.000 seconds
create_atoms 1 single 88.07616916905444 57.4955 72.86504700395167
Created 1 atoms
  using lattice units in orthogonal box = (56.452971 45.782089 58.721311) to (98.874318 84.895411 99.504555)
  create_atoms CPU = 0.000 seconds
create_atoms 1 single 90.1326994842407 56.203 75.20010203812177
Created 1 atoms
  using lattice units in orthogonal box = (56.452971 45.782089 58.721311) to (98.874318 84.895411 99.504555)
  create_atoms CPU = 0.000 seconds
create_atoms 1 single 60.74326297994269 59.8634 71.43536073484324
Created 1 atoms
  using lattice units in orthogonal box = (56.452971 45.782089 58.721311) to (98.874318 84.895411 99.504555)
  create_atoms CPU = 0.000 seconds
create_atoms 2 single 60.15411919770774 57.865 73.21407887540654
Created 1 atoms
[...]
  using lattice units in orthogonal box = (56.452971 45.782089 58.721311) to (98.874318 84.895411 99.504555)
  create_atoms CPU = 0.000 seconds
create_atoms 5 single 78.17074275071634 65.284 95.25481040635239
Created 1 atoms
  using lattice units in orthogonal box = (56.452971 45.782089 58.721311) to (98.874318 84.895411 99.504555)
  create_atoms CPU = 0.000 seconds
create_atoms 1 single 77.28244143266477 67.7338 93.7050514263936
Created 1 atoms
  using lattice units in orthogonal box = (56.452971 45.782089 58.721311) to (98.874318 84.895411 99.504555)
  create_atoms CPU = 0.000 seconds
create_atoms 1 single 80.61257868194843 62.854 95.97873596390683
Created 1 atoms
  using lattice units in orthogonal box = (56.452971 45.782089 58.721311) to (98.874318 84.895411 99.504555)
  create_atoms CPU = 0.000 seconds
create_atoms 1 single 81.71980269340975 64.4936 93.87623200904184
Created 1 atoms
  using lattice units in orthogonal box = (56.452971 45.782089 58.721311) to (98.874318 84.895411 99.504555)
  create_atoms CPU = 0.000 seconds
create_atoms 2 single 79.30326601719197 66.1041 93.21070078693518
Created 1 atoms
  using lattice units in orthogonal box = (56.452971 45.782089 58.721311) to (98.874318 84.895411 99.504555)
  create_atoms CPU = 0.000 seconds
create_atoms 1 single 81.19489782234957 66.0418 96.14529836536853
Created 1 atoms
  using lattice units in orthogonal box = (56.452971 45.782089 58.721311) to (98.874318 84.895411 99.504555)
  create_atoms CPU = 0.000 seconds
create_atoms 3 single 83.42409570200573 64.1642 96.46302923100342
Created 1 atoms
  using lattice units in orthogonal box = (56.452971 45.782089 58.721311) to (98.874318 84.895411 99.504555)
  create_atoms CPU = 0.000 seconds
create_atoms 1 single 84.19998441260745 66.9249 96.12189958068998
Created 1 atoms
  using lattice units in orthogonal box = (56.452971 45.782089 58.721311) to (98.874318 84.895411 99.504555)
  create_atoms CPU = 0.000 seconds
create_atoms 1 single 81.96936979942694 67.3651 93.43771004881643
Created 1 atoms
  using lattice units in orthogonal box = (56.452971 45.782089 58.721311) to (98.874318 84.895411 99.504555)
  create_atoms CPU = 0.000 seconds
create_atoms 1 single 84.88863782234957 64.3842 94.49773657050336
Created 1 atoms
  using lattice units in orthogonal box = (56.452971 45.782089 58.721311) to (98.874318 84.895411 99.504555)
  create_atoms CPU = 0.000 seconds
create_atoms 1 single 87.83205426934099 65.1706 93.91112493356248
Created 1 atoms
  using lattice units in orthogonal box = (56.452971 45.782089 58.721311) to (98.874318 84.895411 99.504555)
  create_atoms CPU = 0.000 seconds
create_atoms 2 single 86.01942446991404 64.9201 97.50047797800053
Created 1 atoms
  using lattice units in orthogonal box = (56.452971 45.782089 58.721311) to (98.874318 84.895411 99.504555)
  create_atoms CPU = 0.000 seconds
create_atoms 1 single 85.02703679083095 67.3026 93.39388864066846
Created 1 atoms
  using lattice units in orthogonal box = (56.452971 45.782089 58.721311) to (98.874318 84.895411 99.504555)
  create_atoms CPU = 0.000 seconds
create_atoms 3 single 86.74248613180517 66.3537 95.75295821700865
Created 1 atoms
  using lattice units in orthogonal box = (56.452971 45.782089 58.721311) to (98.874318 84.895411 99.504555)
  create_atoms CPU = 0.000 seconds
create_atoms 1 single 87.99677375358166 63.8436 96.47524175458564
Created 1 atoms
  using lattice units in orthogonal box = (56.452971 45.782089 58.721311) to (98.874318 84.895411 99.504555)
  create_atoms CPU = 0.000 seconds
create_atoms 1 single 89.46861191977078 66.6306 96.66581869821741
Created 1 atoms
  using lattice units in orthogonal box = (56.452971 45.782089 58.721311) to (98.874318 84.895411 99.504555)
  create_atoms CPU = 0.000 seconds
create_atoms 1 single 90.46276636103153 63.7451 92.92201314965128
Created 1 atoms
  using lattice units in orthogonal box = (56.452971 45.782089 58.721311) to (98.874318 84.895411 99.504555)
  create_atoms CPU = 0.001 seconds
create_atoms 1 single 90.79722297994269 64.3306 95.82643861099915
Created 1 atoms
  using lattice units in orthogonal box = (56.452971 45.782089 58.721311) to (98.874318 84.895411 99.504555)
  create_atoms CPU = 0.000 seconds
create_atoms 2 single 90.1491764469914 66.2855 93.64675971719441
Created 1 atoms
  using lattice units in orthogonal box = (56.452971 45.782089 58.721311) to (98.874318 84.895411 99.504555)
  create_atoms CPU = 0.000 seconds
create_atoms 4 single 93.05292080229228 65.1623 94.55069171477585
Created 1 atoms
  using lattice units in orthogonal box = (56.452971 45.782089 58.721311) to (98.874318 84.895411 99.504555)
  create_atoms CPU = 0.000 seconds
create_atoms 1 single 94.80407404011461 65.1803 92.44408270996728
Created 1 atoms
  using lattice units in orthogonal box = (56.452971 45.782089 58.721311) to (98.874318 84.895411 99.504555)
  create_atoms CPU = 0.000 seconds
create_atoms 1 single 69.98922286532951 70.561 92.28131747970339
Created 1 atoms
  using lattice units in orthogonal box = (56.452971 45.782089 58.721311) to (98.874318 84.895411 99.504555)
  create_atoms CPU = 0.000 seconds
create_atoms 1 single 70.95363421203439 68.0257 94.03684208808531
Created 1 atoms
  using lattice units in orthogonal box = (56.452971 45.782089 58.721311) to (98.874318 84.895411 99.504555)
  create_atoms CPU = 0.000 seconds
create_atoms 1 single 72.98737398280802 70.311 94.4322610239029
Created 1 atoms
  using lattice units in orthogonal box = (56.452971 45.782089 58.721311) to (98.874318 84.895411 99.504555)
  create_atoms CPU = 0.000 seconds
create_atoms 1 single 77.0218758739255 72.8016 93.29218602831568
Created 1 atoms
  using lattice units in orthogonal box = (56.452971 45.782089 58.721311) to (98.874318 84.895411 99.504555)
  create_atoms CPU = 0.000 seconds
create_atoms 1 single 74.39191753581662 68.8069 92.72661277233577
Created 1 atoms
  using lattice units in orthogonal box = (56.452971 45.782089 58.721311) to (98.874318 84.895411 99.504555)
  create_atoms CPU = 0.000 seconds
create_atoms 2 single 76.68155289398281 70.2114 92.55871622964239
Created 1 atoms
  using lattice units in orthogonal box = (56.452971 45.782089 58.721311) to (98.874318 84.895411 99.504555)
  create_atoms CPU = 0.000 seconds
create_atoms 1 single 76.3616641260745 70.0417 95.24618980147083
Created 1 atoms
  using lattice units in orthogonal box = (56.452971 45.782089 58.721311) to (98.874318 84.895411 99.504555)
  create_atoms CPU = 0.000 seconds
create_atoms 1 single 79.14212217765044 68.2059 96.6194316338547
Created 1 atoms
  using lattice units in orthogonal box = (56.452971 45.782089 58.721311) to (98.874318 84.895411 99.504555)
  create_atoms CPU = 0.000 seconds
create_atoms 3 single 74.60644744985674 71.6386 93.2196292705625
Created 1 atoms
  using lattice units in orthogonal box = (56.452971 45.782089 58.721311) to (98.874318 84.895411 99.504555)
  create_atoms CPU = 0.000 seconds
create_atoms 1 single 79.18104034383954 70.6827 94.768464614284
Created 1 atoms
  using lattice units in orthogonal box = (56.452971 45.782089 58.721311) to (98.874318 84.895411 99.504555)
  create_atoms CPU = 0.000 seconds
create_atoms 1 single 82.51553604584528 72.3245 92.55686895716777
Created 1 atoms
  using lattice units in orthogonal box = (56.452971 45.782089 58.721311) to (98.874318 84.895411 99.504555)
  create_atoms CPU = 0.000 seconds
create_atoms 3 single 80.03535295128941 68.146 94.51035959907996
Created 1 atoms
  using lattice units in orthogonal box = (56.452971 45.782089 58.721311) to (98.874318 84.895411 99.504555)
  create_atoms CPU = 0.000 seconds
create_atoms 1 single 82.16356888252149 69.0634 96.41623166164634
Created 1 atoms
  using lattice units in orthogonal box = (56.452971 45.782089 58.721311) to (98.874318 84.895411 99.504555)
  create_atoms CPU = 0.000 seconds
create_atoms 3 single 83.85661111747851 69.3887 94.5934868604379
Created 1 atoms
  using lattice units in orthogonal box = (56.452971 45.782089 58.721311) to (98.874318 84.895411 99.504555)
  create_atoms CPU = 0.000 seconds
create_atoms 4 single 81.27160223495702 70.1678 93.48512337566504
Created 1 atoms
  using lattice units in orthogonal box = (56.452971 45.782089 58.721311) to (98.874318 84.895411 99.504555)
  create_atoms CPU = 0.000 seconds
create_atoms 2 single 82.16858389684813 71.7237 95.56997561577253
Created 1 atoms
  using lattice units in orthogonal box = (56.452971 45.782089 58.721311) to (98.874318 84.895411 99.504555)
  create_atoms CPU = 0.000 seconds
create_atoms 3 single 84.61127776504298 70.334 96.98734673505014
Created 1 atoms
  using lattice units in orthogonal box = (56.452971 45.782089 58.721311) to (98.874318 84.895411 99.504555)
  create_atoms CPU = 0.000 seconds
create_atoms 1 single 84.90768160458452 72.0037 95.04709487920607
Created 1 atoms
  using lattice units in orthogonal box = (56.452971 45.782089 58.721311) to (98.874318 84.895411 99.504555)
  create_atoms CPU = 0.000 seconds
create_atoms 2 single 79.88482171919772 72.5696 92.82574972847378
Created 1 atoms
  using lattice units in orthogonal box = (56.452971 45.782089 58.721311) to (98.874318 84.895411 99.504555)
  create_atoms CPU = 0.000 seconds
create_atoms 1 single 86.59352223495702 68.9993 96.24299855402629
Created 1 atoms
  using lattice units in orthogonal box = (56.452971 45.782089 58.721311) to (98.874318 84.895411 99.504555)
  create_atoms CPU = 0.000 seconds
create_atoms 1 single 88.03997020057307 68.3134 94.20525176202165
Created 1 atoms
  using lattice units in orthogonal box = (56.452971 45.782089 58.721311) to (98.874318 84.895411 99.504555)
  create_atoms CPU = 0.000 seconds
create_atoms 2 single 89.60173873925501 69.4095 96.7126162675745
Created 1 atoms
  using lattice units in orthogonal box = (56.452971 45.782089 58.721311) to (98.874318 84.895411 99.504555)
  create_atoms CPU = 0.000 seconds
create_atoms 1 single 87.88535220630374 71.395 95.10600234589678
Created 1 atoms
  using lattice units in orthogonal box = (56.452971 45.782089 58.721311) to (98.874318 84.895411 99.504555)
  create_atoms CPU = 0.000 seconds
create_atoms 2 single 87.99851123209169 70.5338 92.58704107425325
Created 1 atoms
  using lattice units in orthogonal box = (56.452971 45.782089 58.721311) to (98.874318 84.895411 99.504555)
  create_atoms CPU = 0.000 seconds
create_atoms 3 single 85.73768727793697 70.0217 93.59678073413106
Created 1 atoms
  using lattice units in orthogonal box = (56.452971 45.782089 58.721311) to (98.874318 84.895411 99.504555)
  create_atoms CPU = 0.000 seconds
create_atoms 1 single 90.05270865329513 68.7719 92.69274611030103
Created 1 atoms
  using lattice units in orthogonal box = (56.452971 45.782089 58.721311) to (98.874318 84.895411 99.504555)
  create_atoms CPU = 0.000 seconds
create_atoms 1 single 91.27121982808022 71.7377 92.71224509753314
Created 1 atoms
  using lattice units in orthogonal box = (56.452971 45.782089 58.721311) to (98.874318 84.895411 99.504555)
  create_atoms CPU = 0.000 seconds
create_atoms 4 single 91.51617770773639 67.9497 95.57295177698165
Created 1 atoms
  using lattice units in orthogonal box = (56.452971 45.782089 58.721311) to (98.874318 84.895411 99.504555)
  create_atoms CPU = 0.000 seconds
create_atoms 2 single 90.37928424068768 70.6201 94.74403956711957
Created 1 atoms
  using lattice units in orthogonal box = (56.452971 45.782089 58.721311) to (98.874318 84.895411 99.504555)
  create_atoms CPU = 0.000 seconds
create_atoms 4 single 93.1782546704871 69.1978 93.96233543160892
Created 1 atoms
  using lattice units in orthogonal box = (56.452971 45.782089 58.721311) to (98.874318 84.895411 99.504555)
  create_atoms CPU = 0.000 seconds
create_atoms 1 single 72.03299369627507 72.9568 92.62532066497735
Created 1 atoms
  using lattice units in orthogonal box = (56.452971 45.782089 58.721311) to (98.874318 84.895411 99.504555)
  create_atoms CPU = 0.000 seconds
create_atoms 5 single 79.72536017191977 73.7609 95.07398295633668
Created 1 atoms
  using lattice units in orthogonal box = (56.452971 45.782089 58.721311) to (98.874318 84.895411 99.504555)
  create_atoms CPU = 0.000 seconds
create_atoms 1 single 76.88181421203439 75.7789 93.42796055520037
Created 1 atoms
  using lattice units in orthogonal box = (56.452971 45.782089 58.721311) to (98.874318 84.895411 99.504555)
  create_atoms CPU = 0.000 seconds
create_atoms 1 single 82.50993524355302 74.2515 94.78252441034084
Created 1 atoms
  using lattice units in orthogonal box = (56.452971 45.782089 58.721311) to (98.874318 84.895411 99.504555)
  create_atoms CPU = 0.000 seconds
create_atoms 1 single 80.01445266475645 76.2736 93.70628294137667
Created 1 atoms
  using lattice units in orthogonal box = (56.452971 45.782089 58.721311) to (98.874318 84.895411 99.504555)
  create_atoms CPU = 0.000 seconds
create_atoms 2 single 82.88812246418338 76.8953 94.02093501955386
Created 1 atoms
  using lattice units in orthogonal box = (56.452971 45.782089 58.721311) to (98.874318 84.895411 99.504555)
  create_atoms CPU = 0.000 seconds
create_atoms 3 single 84.19020200573065 74.4845 93.2000276570818
Created 1 atoms
  using lattice units in orthogonal box = (56.452971 45.782089 58.721311) to (98.874318 84.895411 99.504555)
  create_atoms CPU = 0.000 seconds
create_atoms 1 single 88.44194234957021 73.1578 92.87552345903997
Created 1 atoms
  using lattice units in orthogonal box = (56.452971 45.782089 58.721311) to (98.874318 84.895411 99.504555)
  create_atoms CPU = 0.000 seconds
create_atoms 3 single 86.6437535816619 73.7978 94.30941740434058
Created 1 atoms
  using lattice units in orthogonal box = (56.452971 45.782089 58.721311) to (98.874318 84.895411 99.504555)
  create_atoms CPU = 0.000 seconds
group surface id  1 2 4 5 6 7 8 9 10 12 13 14 19 20 21 23 24 25 26 27 28 29 30 33 34 37 40 41 42 43 44 48 49 50 51 52 54 56 57 58 59 62 63 64 65 67 69 70 71 72 73 74 75 76 77 78 79 80 81 82 83 84 85 86 87 89 90 91 92 93 97 98 100 101 106 109 110 112 115 116 117 119 120 121 122 123 151 152 153 157 160 161 162 163 165 192 193 202 203 204 205 206 207 208 209 212 214 216 241 245 247 248 250 251 252 257 258 259 270 276 277 278 279 280 281 282 283 284 285 286 287 288 289 290 291 292 293 294 295 296 297 298 299 303 304 305 307 308 309 310 311 314 316 319 321 340 341 346 347 348 349 350 351 352 353 354 394 395 396 397 399 400 401 403 446 451 452 453 454 455 494 495 497 499 500 501 502 503 507 541 542 543 544 545 546 547 548 549 550 552 553 554 555 559 560 564 566 567 568 569 570 571 572 573 574 575 576 578 579 581 582 585 586 588 589 591 595 597 598 601 602 603 604 606 607 608 642 643 649 650 652 653 654 656 658 659 661 702 704 706 707 709 710 754 757 758 761 763 765 766 805 807 809 810 811 812 813 816 849 850 851 852 853 855 858 859 860 862 865 866 867 869 870 873 874 875 876 878 879 880 881 882 883 884 886 887 889 891 892 893 897 898 900 901 902 905 906 907 908 909 910 911 941 942 945 947 948 950 952 953 954 992 994 995 996 997 998 1002 1003 1044 1045 1047 1052 1053 1055 1056 1096 1098 1101 1102 1103 1104 1105 1107 1109 1110 1114 1145 1146 1147 1148 1149 1150 1154 1155 1156 1157 1161 1162 1163 1164 1166 1168 1169 1170 1171 1172 1173 1174 1175 1176 1177 1178 1179 1180 1181 1182 1183 1184 1185 1186 1187 1190 1194 1198 1202 1208 1210 1212 1213 1214 1215 1216 1217 1219 1220 1223 1247 1254 1255 1256 1257 1258 1259 1260 1261 1301 1303 1304 1305 1306 1307 1309 1314 1346 1347 1348 1349 1350 1351 1352 1353 1355 1356 1360 1361 1372 1375 1377 1378 1379 1381 1382 1383 1384 1385 1386 1387 1388 1389 1390 1391 1392 1393 1394 1395 1396 1397 1398 1399 1400 1401 1402 1403 1404 1406 1407 1409 1413 1414 1416 1418 1420 1421 1423 1425 1426 1427 1428 1430 1431 1432 1433 1434 1435 1439 1440 1442 1445 1446 1447 1451 1453 1454 1455 1457 1459 1460 1461 1462 1463 1464 1467 1468 1469 1470 1473 1476 1477 1478 1480 1482 1483 1487 1488 1489 1490 1491 1492 1493 1494 1495 1496 1497 1498 1499 
516 atoms in group surface
    fix freeze surface setforce 0 0 0 
    minimize 0 1e-4 100000 100000
Neighbor list info ...
  update: every = 1 steps, delay = 0 steps, check = yes
  max neighbors/atom: 2000, page size: 100000
  master list distance cutoff = 9.1553683
  ghost atom cutoff = 9.1553683
  binsize = 4.5776842, bins = 10 9 9
  1 neighbor lists, perpetual/occasional/extra = 1 0 0
  (1) pair eam/alloy, perpetual
      attributes: half, newton on
      pair build: half/bin/atomonly/newton
      stencil: half/bin/3d
      bin: standard
Per MPI rank memory allocation (min/avg/max) = 4.075 | 4.39 | 4.482 Mbytes
   Step          Temp          E_pair         E_mol          TotEng         Press          Volume    
         0   0             -7705.8776      0             -7705.8776      16486.916      49624.316    
       742   0             -7935.3671      0             -7935.3671     -2501.6755      49624.316    
Loop time of 0.261309 on 96 procs for 742 steps with 1499 atoms

99.7% CPU use with 96 MPI tasks x 1 OpenMP threads

Minimization stats:
  Stopping criterion = linesearch alpha is zero
  Energy initial, next-to-last, final = 
     -7705.87760256856  -7935.36705577002  -7935.36705577002
  Force two-norm initial, final = 40.885072 0.028351012
  Force max component initial, final = 3.0388366 0.0099382864
  Final line search alpha, max atom move = 7.6293945e-06 7.5823108e-08
  Iterations, force evaluations = 742 1445

MPI task timing breakdown:
Section |  min time  |  avg time  |  max time  |%varavg| %total
---------------------------------------------------------------
Pair    | 0.086412   | 0.12043    | 0.17821    |   8.0 | 46.09
Neigh   | 2.6492e-05 | 0.00049927 | 0.0014473  |   0.0 |  0.19
Comm    | 0.02701    | 0.092977   | 0.131      |   9.2 | 35.58
Output  | 0          | 0          | 0          |   0.0 |  0.00
Modify  | 8.4883e-05 | 0.00013581 | 0.00025848 |   0.0 |  0.05
Other   |            | 0.04727    |            |       | 18.09

Nlocal:        15.6146 ave          33 max           0 min
Histogram: 21 4 10 9 6 5 8 9 15 9
Nghost:        376.281 ave         813 max          85 min
Histogram: 6 13 21 12 15 15 2 4 2 6
Neighs:        1010.03 ave        2939 max           0 min
Histogram: 27 14 9 8 8 9 5 2 11 3

Total # of neighbors = 96963
Ave neighs/atom = 64.685123
Neighbor list builds = 20
Dangerous builds = 0
    unfix freeze
    compute force all property/atom fx fy fz
    dump fcal all custom 1 dump.force id type x y z fx fy fz
    dump_modify fcal sort id
    run 1 
WARNING: No fixes with time integration, atoms won't move (src/verlet.cpp:60)
Per MPI rank memory allocation (min/avg/max) = 2.966 | 3.281 | 3.374 Mbytes
   Step          Temp          E_pair         E_mol          TotEng         Press          Volume    
       742   0             -7935.3671      0             -7935.3671     -2501.6755      49624.316    
       743   0             -7935.3671      0             -7935.3671     -2501.6755      49624.316    
Loop time of 0.000861525 on 96 procs for 1 steps with 1499 atoms

Performance: 100.287 ns/day, 0.239 hours/ns, 1160.733 timesteps/s, 1.740 Matom-step/s
99.8% CPU use with 96 MPI tasks x 1 OpenMP threads

MPI task timing breakdown:
Section |  min time  |  avg time  |  max time  |%varavg| %total
---------------------------------------------------------------
Pair    | 8.3221e-05 | 0.00012032 | 0.00018587 |   0.0 | 13.97
Neigh   | 0          | 0          | 0          |   0.0 |  0.00
Comm    | 2.6904e-05 | 8.8783e-05 | 0.00013037 |   0.0 | 10.31
Output  | 0.0001634  | 0.00036942 | 0.00070927 |   0.0 | 42.88
Modify  | 1.65e-07   | 3.0975e-07 | 6.71e-07   |   0.0 |  0.04
Other   |            | 0.0002827  |            |       | 32.81

Nlocal:        15.6146 ave          32 max           0 min
Histogram: 21 4 10 8 4 8 4 9 15 13
Nghost:        376.531 ave         813 max          85 min
Histogram: 6 13 21 12 15 15 2 4 2 6
Neighs:        1010.05 ave        2846 max           0 min
Histogram: 26 13 10 7 10 7 5 5 8 5

Total # of neighbors = 96965
Ave neighs/atom = 64.686458
Neighbor list builds = 0
Dangerous builds = 0
