# LAMMPS data file written by OVITO Pro 3.7.7
1013 atoms
5 atom types
0.0 250.0 xlo xhi
0.0 90.51 ylo yhi
0.0 181.02 zlo zhi

Atoms  # atomic

1 1 67.0874 42.1378 86.7341
2 4 54.8444 47.5415 86.6573
3 4 59.5156 45.3136 84.3689
4 4 59.4856 43.267 86.8559
5 3 60.6303 45.6626 86.6551
6 1 57.8011 45.878 86.7701
7 2 64.8811 42.8506 84.9389
8 1 62.3797 43.7197 85.814
9 2 65.3757 44.424 86.8017
10 4 63.8166 44.8731 83.2154
11 1 65.869 47.3606 82.2236
12 1 65.3544 46.3356 85.011
13 1 62.066 46.8009 84.6195
14 1 67.3338 44.0759 84.3959
15 3 70.9496 45.0349 86.9067
16 1 68.1261 46.9773 84.0766
17 1 69.8677 42.7453 85.9596
18 2 70.068 45.141 84.55
19 1 68.138 45.4104 86.9292
20 1 70.1419 47.5656 86.4087
21 2 74.519 44.6096 85.5075
22 1 72.5038 46.4006 84.9187
23 1 75.3919 47.5118 85.7206
24 1 72.7088 43.0457 86.9513
25 1 59.5926 48.1948 83.5257
26 1 57.2541 48.5674 85.3405
27 2 59.6739 47.7825 86.1415
28 3 56.7571 52.7966 85.2534
29 1 58.8011 51.128 84.8033
30 1 55.8914 50.6983 86.9549
31 2 61.0757 50.2648 82.5907
32 1 63.639 49.01 83.2324
33 3 63.2772 51.5511 82.4525
34 1 61.2842 52.7743 83.7882
35 1 65.868 51.411 83.1515
36 1 61.4261 49.789 85.2985
37 1 63.7306 51.6559 85.2967
38 1 61.0315 52.526 86.7716
39 1 64.1385 48.6895 86.2264
40 3 66.1762 48.9807 84.3435
41 1 68.0588 49.5929 82.2709
42 5 68.752 49.7189 84.9673
43 1 70.6879 48.2039 83.3052
44 2 68.1255 52.5712 81.7666
45 2 70.5214 51.0062 83.299
46 1 68.3243 52.4577 84.481
47 2 67.3027 48.0985 86.5275
48 1 66.4372 50.6756 86.4081
49 1 70.9501 52.4449 85.9233
50 2 71.3295 49.8916 85.5324
51 1 73.0654 52.1364 83.7088
52 1 73.4149 49.2101 84.0215
53 1 75.8379 50.4596 85.1546
54 3 73.4792 51.2953 86.2371
55 5 73.0415 48.6285 86.9352
56 1 59.3365 57.4554 85.2202
57 2 59.2012 54.0707 84.9726
58 1 57.1156 55.4756 85.9598
59 5 60.4921 55.3103 86.9225
60 1 64.0482 54.0624 83.1645
61 1 61.624 55.7986 84.0298
62 2 64.4008 56.6711 81.988
63 1 64.7496 56.7466 84.6096
64 1 63.4027 54.6509 86.2529
65 2 65.8331 53.4558 85.1876
66 1 62.104 57.8081 86.3388
67 1 66.9713 54.9217 83.1228
68 1 70.5196 53.7749 82.7507
69 1 69.4612 55.228 85.162
70 3 67.5986 57.3312 84.3461
71 1 69.3512 56.618 82.5139
72 1 66.7988 55.6194 86.392
73 5 70.4553 58.048 84.8312
74 2 68.9172 57.2823 86.89
75 4 72.2525 56.8162 82.7223
76 5 75.2651 56.0063 84.2068
77 1 72.5261 54.9026 84.7997
78 1 75.1486 53.3888 85.6596
79 2 74.2983 55.9679 86.619
80 1 76.6219 57.3166 86.5465
81 2 77.6815 54.6796 85.9568
82 1 62.6408 58.5503 83.334
83 1 65.6216 59.3172 83.3419
84 1 63.2374 61.3708 84.185
85 3 60.8727 59.8084 84.9118
86 2 64.0793 59.3548 85.6386
87 1 65.8282 61.5446 85.7327
88 1 62.1677 61.0877 86.9294
89 1 68.3943 60.0264 84.2678
90 1 66.5557 58.7259 86.3049
91 1 68.7074 62.6228 86.0645
92 1 73.4149 58.2833 85.0086
93 1 71.2175 60.929 85.1648
94 2 63.862 63.4757 86.2709
95 2 59.8931 42.1687 89.7638
96 2 58.0178 42.0763 91.6299
97 4 61.5134 41.3274 87.7842
98 2 65.8789 41.4148 89.8494
99 1 63.8795 39.6325 89.6307
100 3 62.1027 39.3714 91.6541
101 1 64.2178 42.1944 87.7755
102 1 62.6467 42.2492 90.3809
103 3 64.1522 40.9252 92.1358
104 3 65.972 39.9098 87.847
105 1 68.4574 40.7497 89.0861
106 1 66.74 38.681 90.2676
107 1 70.9181 39.1089 89.8467
108 5 70.6068 41.718 90.8431
109 3 71.1302 41.3148 88.2412
110 2 69.1269 39.5074 91.8357
111 1 73.3507 40.9542 90.1156
112 2 76.1 41.4411 90.1657
113 1 54.6747 46.687 91.9079
114 4 55.4365 45.8461 89.1683
115 1 58.1025 44.2854 89.3337
116 1 59.7997 46.9801 88.8718
117 1 57.697 46.7261 91.0872
118 1 60.1064 44.4093 91.5345
119 1 60.8144 47.3525 91.6864
120 1 61.433 44.4394 88.8252
121 2 64.0902 44.5605 89.2648
122 1 63.069 47.2659 89.6767
123 1 65.6995 46.7824 88.2391
124 5 63.2197 45.9957 87.1139
125 1 65.5508 46.2012 91.1424
126 1 65.2299 43.3294 91.5733
127 3 62.8099 45.0656 91.4072
128 1 66.6824 43.8883 89.0789
129 1 69.6274 43.5199 88.814
130 3 68.1328 42.7611 91.0281
131 2 70.1391 46.074 88.9932
132 2 68.1323 45.5617 90.5472
133 1 70.1863 47.6777 91.4994
134 1 70.2405 44.5435 91.9169
135 5 74.8875 45.5892 90.1624
136 1 76.3319 45.273 87.4419
137 1 72.45 43.7247 89.8596
138 2 74.8834 43.2511 88.6904
139 3 74.7505 43.1695 91.4188
140 4 72.2844 46.4292 90.3215
141 1 73.3252 45.9056 87.7481
142 2 75.417 47.6059 88.4804
143 1 76.3033 47.6784 91.4571
144 1 77.2702 44.0904 89.967
145 3 77.5939 46.7002 89.3048
146 1 78.8425 46.0366 91.7275
147 2 53.5165 49.1605 92.1368
148 1 53.9541 49.1568 88.9695
149 1 52.6592 51.3173 90.7272
150 3 53.1949 51.67 87.9683
151 3 55.0622 51.6404 89.4539
152 1 55.1609 52.1426 92.0715
153 1 55.8985 49.4758 91.0472
154 1 56.9867 48.2771 88.4557
155 1 59.3338 49.9546 87.5799
156 3 57.3469 51.048 89.1947
157 1 58.8153 49.4494 90.6769
158 4 58.4782 52.4775 91.1624
159 2 60.1469 51.6669 89.3768
160 3 61.2311 49.339 89.7874
161 2 61.7435 48.1972 87.4796
162 2 65.0961 49.4914 88.5505
163 1 62.776 50.6888 88.2008
164 1 64.7967 52.0322 89.9931
165 2 65.071 52.7195 87.4619
166 1 63.4113 49.6407 91.3997
167 3 65.8053 48.6667 90.6111
168 3 62.1867 52.0515 90.5681
169 3 65.9373 50.7503 91.9346
170 2 69.767 50.0895 90.3488
171 1 68.1676 47.9685 89.1863
172 5 69.4729 50.3842 87.5423
173 4 71.1373 48.4626 88.8654
174 1 67.3044 50.7562 89.4436
175 1 69.947 52.6465 89.5422
176 3 67.8253 49.1086 91.7869
177 1 73.7419 48.8109 90.0299
178 3 75.0585 49.9543 87.6263
179 1 72.3256 51.0549 88.6188
180 3 75.0271 52.196 88.4635
181 2 74.0664 51.3635 90.7433
182 1 76.3984 50.2272 89.8755
183 2 72.1084 52.9462 91.0591
184 1 71.8102 50.3782 92.0002
185 3 75.9807 52.1305 92.1433
186 1 77.5823 48.8392 87.494
187 1 77.3587 51.9318 87.2291
188 1 77.5609 52.8897 90.1694
189 3 78.996 50.8074 89.0737
190 2 78.7057 48.6627 90.2944
191 2 79.9945 51.7764 91.2251
192 1 53.557 54.1037 89.8544
193 1 55.1204 53.5289 87.3102
194 1 55.1598 56.352 88.2631
195 1 53.6164 57.2482 90.6824
196 4 56.4855 53.7796 89.8906
197 1 58.2183 52.9916 87.5693
198 3 59.8488 57.5922 87.9039
199 1 58.0881 55.8759 88.7144
200 2 57.3175 58.0281 87.0465
201 2 56.3507 57.0234 90.6394
202 1 60.1865 57.4294 90.5997
203 1 60.5319 54.3336 89.7376
204 1 58.2754 55.289 91.6885
205 2 62.8588 53.5217 88.5955
206 1 65.3993 54.9737 88.9123
207 1 62.5394 56.4406 88.9456
208 3 64.6447 56.9553 87.2944
209 2 64.6908 57.2803 90.4028
210 1 63.5392 54.4514 91.1368
211 2 62.0895 56.3665 92.0069
212 2 67.2537 53.3798 90.1979
213 1 67.8977 53.0542 87.3918
214 3 70.3482 54.4076 87.5412
215 1 68.4922 55.5315 89.0176
216 1 66.9236 58.0037 89.082
217 1 69.2329 54.6486 91.8004
218 3 66.6247 55.7745 91.1666
219 2 68.6716 57.2175 91.2086
220 2 70.9329 57.053 91.8232
221 1 70.2722 58.0114 89.2279
222 1 71.7273 56.6117 87.0821
223 1 73.0244 53.786 87.8002
224 1 71.5293 55.3448 89.8563
225 1 76.1723 54.7534 88.2117
226 2 74.0026 56.1532 89.073
227 1 76.4353 57.8303 89.6304
228 1 74.6257 53.9184 90.5439
229 2 74.9099 56.5289 91.3937
230 2 79.4367 53.4866 88.3301
231 1 79.8893 54.8662 91.0125
232 1 78.7078 56.1337 88.483
233 3 77.1118 55.4176 90.7829
234 5 79.2038 57.8638 90.7636
235 1 55.1985 59.9309 90.9108
236 2 55.3973 59.092 88.3658
237 2 56.062 62.8635 91.625
238 1 57.9271 58.9154 89.5867
239 1 59.2794 60.0637 87.1389
240 2 59.5256 62.6484 88.0235
241 1 57.1182 61.6383 89.1703
242 1 60.1369 60.9699 90.1713
243 1 64.1785 59.2856 88.3355
244 2 61.4746 59.1374 88.7421
245 2 62.7306 61.3224 89.7112
246 3 64.5054 61.9852 88.1683
247 1 65.3255 60.6835 90.6189
248 1 62.7369 58.9278 91.1648
249 1 68.6258 60.1342 90.554
250 1 69.1777 59.9414 87.2286
251 2 66.7875 60.7871 88.295
252 3 68.9685 62.078 88.7577
253 2 71.0862 62.7071 87.4493
254 1 66.619 58.4824 92.0867
255 3 70.9761 59.5501 91.5849
256 1 67.3623 62.8436 90.8355
257 1 70.3704 62.7711 91.066
258 3 71.7364 59.2139 87.072
259 1 73.5403 61.3539 87.0408
260 1 71.5369 60.7209 89.2299
261 1 73.0361 58.2605 90.428
262 1 74.1944 58.5402 87.7816
263 2 74.3699 60.6337 89.6443
264 1 75.3919 59.5585 91.9368
265 1 75.4068 62.6484 91.2153
266 1 72.9557 63.3354 89.5108
267 1 72.835 61.3001 92.1017
268 4 76.4543 60.3658 87.8618
269 1 77.6788 60.5757 90.5803
270 1 58.7836 63.617 90.6202
271 3 61.4546 63.5246 90.9972
272 1 62.0081 63.6282 88.4293
273 1 64.3143 65.5229 88.2919
274 1 64.329 63.5771 90.4255
275 4 61.8339 65.9871 90.2953
276 5 64.4125 66.7267 91.1819
277 1 66.9324 65.8682 89.8971
278 1 66.6186 63.5768 87.9651
279 1 69.5196 64.6361 88.8283
280 2 68.8011 65.0077 91.7896
281 1 71.4048 65.5507 91.0427
282 1 60.1059 38.8078 93.6542
283 4 58.5282 37.5217 95.4959
284 2 58.3929 40.9666 94.1514
285 1 57.651 39.9759 96.5108
286 5 60.5118 40.2144 96.1836
287 1 60.531 41.4056 92.4185
288 2 61.1872 37.6637 96.029
289 1 62.6965 40.1268 94.2295
290 1 64.5702 38.3206 92.3043
291 3 62.5027 37.4989 93.7989
292 2 65.3499 39.4598 94.6094
293 5 63.7922 38.0439 96.2436
294 1 63.5689 41.0078 96.8448
295 1 65.3209 42.1562 94.6196
296 4 66.5379 37.2616 95.8316
297 5 67.3461 37.9553 93.1687
298 4 70.0669 38.0927 94.3513
299 1 67.8996 40.224 95.0546
300 1 66.7948 40.7906 92.3323
301 5 69.495 41.7288 93.2641
302 1 70.9056 40.7403 95.6448
303 1 68.9957 38.4375 97.1826
304 3 65.9968 42.3032 97.2337
305 1 71.8531 39.7144 92.6927
306 1 71.934 38.1643 97.0643
307 1 74.8124 40.7898 92.8312
308 1 75.941 40.8414 95.6591
309 2 73.4129 39.4724 94.9991
310 3 73.2982 41.9693 95.2996
311 5 72.4185 42.4805 92.9027
312 3 78.1647 42.1522 94.794
313 4 54.1676 44.2835 93.6449
314 4 53.1994 45.5907 96.0611
315 1 56.8269 44.2966 92.4853
316 1 56.5314 42.8515 95.4591
317 1 59.2412 43.514 94.2254
318 5 59.0469 42.5074 96.9299
319 2 58.6728 46.1786 93.5774
320 4 55.9314 45.9083 94.7156
321 4 58.0307 45.4564 95.9629
322 1 60.0545 47.6344 95.8278
323 1 60.662 44.9466 97.1253
324 2 61.4078 42.528 95.4476
325 1 62.7705 43.0919 93.2805
326 1 63.4474 44.1704 96.3049
327 1 61.4546 45.6094 94.0752
328 1 64.7748 45.338 93.834
329 3 63.2933 47.2032 92.6088
330 1 63.2666 47.4187 95.5468
331 2 65.9214 46.8478 95.7507
332 3 66.108 44.4206 95.9565
333 1 67.5411 43.9082 93.3969
334 1 70.579 43.734 94.9412
335 2 68.0798 42.8627 95.7497
336 1 67.891 46.7553 93.0995
337 1 70.9857 46.7233 94.2286
338 1 68.4497 45.8015 95.9005
339 3 70.9238 45.9465 96.844
340 1 73.1366 44.8931 95.6991
341 1 73.3084 45.1128 92.6669
342 1 75.3412 43.4123 94.2642
343 2 76.2529 45.1337 92.4036
344 1 75.098 46.9557 94.2239
345 1 72.9318 47.6979 96.556
346 3 71.8768 42.7541 97.2188
347 4 76.0003 45.3318 96.3999
348 4 77.5214 43.0664 96.9962
349 1 77.3784 42.5482 92.3627
350 1 79.7845 45.1188 97.2605
351 1 78.1348 44.917 94.4611
352 1 78.0895 47.2709 96.4616
353 2 80.1637 46.866 94.5998
354 3 77.8825 47.6379 93.6708
355 4 51.5021 48.3998 93.6195
356 1 54.0253 47.9532 94.677
357 2 51.898 49.6172 96.013
358 3 55.2134 50.1485 93.8787
359 1 52.6355 51.1204 93.8748
360 5 54.5485 50.0912 96.4392
361 3 52.7794 51.9697 96.7094
362 1 54.7417 52.8247 95.0277
363 4 50.242 51.7166 95.7261
364 3 56.598 48.0249 93.1266
365 1 57.1067 48.5689 95.5551
366 2 59.104 48.5482 93.3951
367 1 57.6633 50.7433 93.206
368 2 56.8987 51.3463 95.7674
369 1 59.5722 50.5249 95.4672
370 1 60.7817 50.6881 92.4374
371 2 61.6471 48.7255 93.9198
372 1 65.5079 48.4464 93.4107
373 2 63.6454 50.1078 94.3311
374 2 61.7512 52.0106 94.6461
375 4 63.6368 52.1173 92.8608
376 2 64.2719 52.3907 95.5523
377 1 65.1868 49.4657 96.6568
378 1 62.2288 50.2163 96.6487
379 1 66.4826 51.0708 94.4615
380 3 67.6007 48.4574 95.2096
381 1 69.5584 49.4837 93.8336
382 1 68.4731 51.7266 92.1931
383 3 68.901 51.6238 95.3079
384 1 70.0177 48.6146 96.727
385 3 67.7268 50.1391 96.8532
386 4 70.7289 52.9474 93.4003
387 1 66.8322 52.8123 96.8618
388 2 73.0024 47.7481 92.442
389 3 72.3646 49.088 94.3447
390 1 74.797 49.7374 92.9104
391 1 73.6515 52.3536 93.5552
392 1 74.2004 50.3565 95.9229
393 1 71.4233 51.2751 95.5183
394 2 75.5355 47.8446 96.8158
395 3 72.6099 52.8848 97.2271
396 1 80.2325 48.666 92.5225
397 1 81.1737 47.9201 96.9412
398 3 76.4768 49.1164 94.9089
399 1 79.033 49.7648 95.3166
400 3 81.6797 49.2345 94.6417
401 1 77.8772 50.2688 92.4944
402 1 76.5831 51.7452 94.8027
403 3 80.3127 51.2699 93.6795
404 1 81.3771 51.1639 96.4811
405 3 79.1506 52.5684 95.678
406 3 77.0041 52.7195 97.2889
407 1 51.9062 53.9947 95.0332
408 2 52.87 53.6832 92.534
409 1 55.1964 55.1291 92.2798
410 1 52.5066 56.5173 93.4332
411 1 54.7554 55.8719 95.1811
412 1 52.0283 56.5645 96.685
413 2 53.6998 54.4078 97.0682
414 1 55.4272 57.984 93.1577
415 4 57.2489 53.5343 93.794
416 4 59.3956 53.38 95.219
417 2 57.4121 56.1286 94.2329
418 4 58.1176 58.0783 92.4153
419 1 56.8877 54.4105 96.7245
420 1 56.9526 57.6355 96.4263
421 1 59.5045 55.972 96.7403
422 1 60.2091 55.8747 93.8488
423 4 60.8682 53.5019 92.4865
424 1 62.9634 54.5739 94.3746
425 2 65.6015 54.6003 95.0709
426 1 64.6816 56.5422 93.0711
427 3 64.5217 57.0605 95.7138
428 1 61.7036 53.542 96.9297
429 2 62.1447 56.3435 96.2416
430 1 62.2737 58.0158 94.1699
431 1 66.0385 53.5713 92.6313
432 2 68.1063 53.6774 94.4068
433 1 67.575 56.1741 93.7831
434 3 68.9932 57.3716 95.7979
435 1 70.5934 55.9613 94.2609
436 1 69.9193 54.1077 96.3921
437 1 67.2068 55.8027 96.8742
438 2 72.3772 54.0675 95.097
439 1 72.8166 55.2149 92.5236
440 1 75.6399 54.5749 93.3302
441 1 74.9014 53.8894 96.3386
442 2 73.766 56.1365 94.9604
443 4 75.3972 57.5007 93.6078
444 1 71.4505 58.2074 96.0493
445 1 72.6335 55.655 97.3182
446 5 76.5322 56.4964 95.7607
447 1 78.4388 53.3147 93.0352
448 3 77.3526 54.184 95.2676
449 1 77.9152 56.5094 93.06
450 3 79.4492 55.2059 94.9144
451 1 81.2646 53.7025 93.7515
452 1 81.1529 54.182 96.7619
453 1 79.2422 57.7794 95.7316
454 1 80.8308 56.7658 93.2406
455 2 52.9609 59.2173 92.8496
456 1 54.02 58.9107 95.6733
457 1 54.8469 61.1415 93.6306
458 1 54.0359 61.8722 96.4577
459 2 56.5913 62.5086 95.0579
460 1 59.3251 58.4969 94.8788
461 3 56.8799 59.673 94.5358
462 2 60.0357 62.1928 92.6582
463 1 57.7594 60.8827 92.2677
464 1 59.0157 61.3307 95.097
465 2 60.4193 59.5806 92.5661
466 1 56.4832 60.5615 96.9637
467 5 61.2125 58.7571 96.8919
468 3 61.6329 60.5503 94.6068
469 1 61.7086 61.6747 97.0037
470 1 64.4785 59.8132 93.4801
471 1 62.5877 61.6913 92.3823
472 2 63.5586 62.403 94.8795
473 3 65.2249 62.3825 92.7765
474 1 63.9447 59.7449 96.3396
475 1 66.1784 61.6446 95.1407
476 1 66.6621 58.6179 95.2872
477 1 69.4049 58.7247 93.4865
478 1 69.0467 60.4451 95.879
479 2 67.5093 60.8824 92.9562
480 1 68.4578 63.2677 93.9169
481 3 70.0356 61.3038 93.1472
482 3 70.6642 62.4149 95.4287
483 1 72.7454 58.2817 93.3685
484 1 74.4029 58.5225 96.2248
485 3 74.3405 60.3591 94.2737
486 3 71.6906 60.3701 94.5112
487 1 73.1679 62.6974 94.683
488 1 75.6314 61.6236 96.3154
489 1 72.6398 60.8772 96.9839
490 1 76.8274 61.6792 93.6046
491 2 76.7136 59.2077 94.8993
492 1 78.8277 59.4325 93.1998
493 1 78.5694 60.8058 96.1453
494 2 58.0345 63.57 93.3711
495 1 60.1263 65.2457 92.7094
496 2 60.2561 66.0668 95.7383
497 3 58.5881 64.0484 95.9175
498 1 60.9997 63.4597 94.7799
499 4 61.9542 67.2556 93.878
500 1 63.1511 64.6286 93.0313
501 2 65.4371 64.3229 95.234
502 1 64.8544 67.1201 94.1655
503 1 62.9905 65.2915 96.0498
504 1 65.4974 66.6122 97.0886
505 4 63.1085 68.1096 96.6858
506 1 66.1396 64.8364 92.665
507 3 71.0071 63.9054 93.4304
508 1 70.1834 66.5344 93.5363
509 5 67.4599 67.4592 92.4193
510 1 67.6608 65.9675 94.9882
511 2 69.8602 67.5918 96.0885
512 1 70.1992 64.8563 96.1821
513 1 67.6457 63.4519 96.9147
514 4 67.1831 68.677 95.3341
515 2 73.2516 64.0632 92.286
516 3 75.3191 63.9441 93.8451
517 1 72.7349 65.5869 94.7792
518 3 72.3236 63.4978 97.1563
519 2 74.6352 64.3814 96.4467
520 2 60.2145 40.0037 101.68
521 3 59.4128 38.2687 97.8207
522 1 59.4916 40.6 99.057
523 1 56.668 41.6677 98.6741
524 1 58.0677 41.8145 101.479
525 1 62.0069 39.0384 98.4893
526 4 62.1102 41.4192 100.49
527 1 62.9058 38.7901 101.363
528 3 64.311 40.3466 99.4717
529 1 64.7376 37.7295 99.1176
530 2 64.3697 41.1954 102.02
531 2 61.5793 42.2987 97.9501
532 1 65.9821 39.0574 101.545
533 1 66.1188 39.6769 97.434
534 1 66.5302 41.7334 100.041
535 2 67.7038 39.0437 99.5331
536 1 70.3101 38.1533 99.8412
537 3 69.0846 40.8176 100.547
538 1 68.593 41.4469 97.8943
539 5 71.1465 40.5204 98.5412
540 1 68.9985 38.7736 102.379
541 1 71.5632 40.5422 101.454
542 3 72.9335 38.8328 99.7442
543 1 73.885 40.2924 97.6889
544 1 74.6071 40.7279 100.904
545 3 76.2798 41.3856 98.7804
546 2 73.0192 42.2408 99.4348
547 1 77.4031 42.0124 101.296
548 4 54.7573 43.8016 97.7164
549 4 53.6064 45.6298 99.8815
550 1 55.3536 45.9335 102.561
551 2 56.9072 46.4033 100.188
552 1 57.6633 44.4678 98.5293
553 1 55.7957 43.7063 100.743
554 1 60.2007 43.454 99.8816
555 3 58.3343 44.5679 101.319
556 1 59.7085 46.4785 99.7633
557 1 55.5593 46.6971 97.6384
558 2 58.2047 47.266 97.8232
559 1 64.1277 43.1206 99.0197
560 5 61.0022 45.5931 102.075
561 1 65.3903 45.4175 100.702
562 2 62.3446 45.1705 99.3278
563 4 62.971 43.7104 101.571
564 1 63.0827 47.3407 100.854
565 1 64.5814 46.3789 98.0585
566 5 61.8388 47.5951 98.142
567 3 69.7025 43.8896 97.4715
568 1 68.1353 44.1176 101.307
569 1 67.1526 44.4296 98.39
570 1 70.4451 43.0173 99.8432
571 2 70.9615 45.2944 101.328
572 1 67.8885 47.2774 101.233
573 1 69.618 46.0618 99.1516
574 2 70.5752 47.6764 101.832
575 1 67.3527 47.7 98.0415
576 1 74.6617 43.085 97.3839
577 1 72.5048 44.9332 98.7723
578 1 75.444 43.7638 100.06
579 1 73.0345 43.6217 101.763
580 1 73.3387 46.7988 101.008
581 4 75.9624 45.8615 101.695
582 2 71.6926 47.6896 98.9388
583 3 74.8116 46.1785 98.6312
584 4 79.0768 42.7422 99.0544
585 2 77.3216 45.1064 98.5745
586 1 78.5404 44.8388 100.958
587 5 79.9094 47.0757 99.529
588 1 78.072 47.6431 102.206
589 1 77.0379 47.6399 99.3342
590 4 51.8554 48.5315 100.578
591 1 54.9247 48.1227 100.481
592 1 52.9431 48.0289 97.8606
593 2 53.8909 50.4535 102.004
594 1 51.0727 50.8165 98.45
595 1 53.7783 50.5458 99.3103
596 1 51.6326 52.5969 100.863
597 4 55.5863 52.2327 97.9604
598 3 57.9799 48.6319 100.595
599 4 59.6913 49.4286 98.4424
600 1 56.7179 49.495 98.3459
601 1 56.4229 50.8071 100.974
602 5 59.3084 51.4156 100.639
603 4 58.5375 51.974 97.8005
604 1 60.5976 48.8441 101.382
605 2 57.6979 52.8031 102.505
606 2 61.171 51.6497 98.745
607 4 63.5954 49.5237 99.1673
608 2 64.9122 50.3385 101.574
609 3 65.626 48.1795 100.011
610 1 64.1978 52.1355 98.2538
611 4 62.4057 51.0771 100.944
612 5 65.2367 52.9225 101.014
613 1 69.4566 49.3259 99.7798
614 1 66.5822 50.6338 99.265
615 1 69.3819 51.717 98.0096
616 2 70.9727 51.6038 100.813
617 3 67.3747 49.9665 101.758
618 1 68.3777 52.5112 100.732
619 2 72.1257 49.2888 100.78
620 1 75.4688 49.1904 101.563
621 1 72.0208 50.5203 98.3454
622 5 73.5991 51.383 100.776
623 1 74.341 48.9605 98.9374
624 3 74.5815 51.7215 98.1047
625 5 76.3328 51.5301 99.9242
626 1 80.8659 48.4312 101.952
627 1 78.6367 50.0024 100.574
628 2 79.2073 49.2627 98.0424
629 1 81.4337 49.9158 99.3426
630 1 76.8345 50.1437 97.4717
631 1 79.2716 52.0888 98.4579
632 2 80.6653 51.6323 101.479
633 3 53.2582 53.0001 98.8834
634 3 55.1836 54.6122 98.9826
635 1 54.5761 53.1549 101.177
636 1 52.6916 55.4423 99.9058
637 1 51.004 53.8278 97.9042
638 1 54.5761 56.972 98.0777
639 3 53.4785 58.1005 100.323
640 1 55.5135 56.3978 101.004
641 4 57.1548 53.3987 99.964
642 1 59.6712 54.1997 99.2408
643 1 59.4981 57.5701 99.2036
644 2 57.3182 56.0159 98.8499
645 3 57.701 58.1134 101.421
646 5 58.2694 55.5788 101.422
647 1 60.4294 53.6016 102.286
648 1 61.2303 56.3659 101.29
649 3 61.6366 55.7993 98.6135
650 1 62.5693 53.7822 100.121
651 1 64.2871 55.0454 97.4747
652 1 63.2445 57.7761 98.5128
653 1 64.6546 55.8919 100.408
654 2 65.7666 57.8971 97.8754
655 3 66.3195 54.1847 99.1091
656 3 68.6447 54.354 98.7799
657 1 69.7522 55.3582 101.212
658 1 67.4933 56.812 99.7572
659 1 70.0293 56.6144 98.2368
660 5 70.8176 58.1607 100.491
661 3 67.1057 54.762 101.605
662 2 68.8593 57.8733 102.065
663 4 66.4362 57.384 102.352
664 1 71.2279 53.6493 99.2767
665 1 74.1864 53.9233 99.5682
666 3 72.1668 55.9821 100.01
667 1 74.2345 56.6233 101.424
668 1 75.4341 56.2877 98.4235
669 1 72.4794 54.1952 102.187
670 1 75.4115 53.0381 102.273
671 1 80.6954 56.9941 98.1952
672 2 76.4515 55.2617 101.32
673 2 76.9036 54.0307 99.2951
674 1 78.3192 53.1021 101.391
675 1 78.4284 55.0925 97.4355
676 1 78.0929 56.7767 99.8428
677 1 80.3537 54.5423 99.827
678 3 80.499 57.1508 101.036
679 2 81.0065 54.1329 102.439
680 2 78.8349 55.5907 102.117
681 2 54.2072 59.7324 98.435
682 1 55.458 59.6839 101.479
683 5 56.6786 58.6405 99.1149
684 2 55.7869 61.6051 99.3918
685 3 58.8557 59.5573 97.53
686 3 60.0678 58.8233 101.383
687 1 58.2428 60.6756 100.43
688 1 58.775 62.2236 97.9352
689 3 60.5387 61.1699 101.948
690 3 60.1574 62.7778 100.166
691 3 56.8079 61.8646 102.512
692 1 64.4758 62.9406 97.4561
693 1 61.0486 60.2466 99.4323
694 3 62.6241 58.5713 100.852
695 1 65.4425 59.1468 100.432
696 2 63.6997 60.5261 98.9007
697 3 62.5024 62.6231 99.4905
698 1 63.1514 60.8983 101.854
699 1 65.1632 62.3644 100.387
700 2 68.1951 58.5752 97.725
701 1 68.6337 59.8991 100.022
702 3 70.5368 59.423 98.1523
703 1 66.4883 60.6509 97.968
704 2 67.769 62.4682 99.6021
705 1 69.8765 62.7654 101.461
706 1 70.0886 62.119 98.1574
707 4 67.1895 61.0016 102.098
708 4 72.0667 60.8724 99.8316
709 1 73.126 58.2758 98.9196
710 1 73.1504 59.256 101.95
711 5 75.8813 58.7063 100.351
712 3 74.7428 61.0681 100.807
713 1 74.5006 62.9125 98.8028
714 2 72.578 61.9978 101.998
715 3 74.8316 60.2031 98.4582
716 1 77.0155 61.7413 102.056
717 2 79.4789 59.4413 98.6175
718 1 77.0562 58.7107 97.6527
719 1 78.5509 59.2736 101.294
720 1 77.1959 61.3199 99.1231
721 1 57.4616 63.6547 100.285
722 1 56.2337 63.6546 97.4702
723 3 58.3696 65.2191 98.2576
724 1 60.1206 65.3939 100.626
725 1 60.8099 64.337 97.8772
726 1 63.3204 65.1502 99.1949
727 2 61.4533 66.9893 98.57
728 1 65.1012 67.4186 100.099
729 2 64.7191 64.8254 101.461
730 1 62.232 63.6321 101.966
731 1 62.6352 66.6589 101.716
732 1 66.3571 64.8155 99.2049
733 4 67.4216 68.5643 98.2045
734 4 69.4661 64.6781 99.2137
735 3 68.1356 66.1378 97.6135
736 1 71.1286 66.4134 100.793
737 2 67.458 64.1513 101.516
738 1 68.0854 66.875 100.516
739 3 70.0094 67.3999 98.5765
740 1 72.2686 66.0377 97.8777
741 5 72.0586 63.7621 99.8833
742 2 73.8164 65.7448 100.159
743 1 74.7386 63.6736 101.684
744 3 59.0317 41.4027 104.163
745 1 62.016 40.7857 103.608
746 4 63.1421 40.323 106.489
747 1 64.2464 38.9253 104.021
748 1 65.3486 41.529 104.842
749 3 65.8112 40.6227 107.392
750 3 66.8841 39.1007 104.147
751 1 68.1819 40.6592 105.833
752 3 70.2362 40.5542 104.02
753 1 67.6964 41.3569 102.806
754 1 70.8032 42.2845 106.192
755 1 73.0371 41.0584 103.888
756 1 58.311 46.8269 102.642
757 2 56.3091 46.1505 105.118
758 1 57.3087 43.8256 103.647
759 4 58.1104 42.9269 106.364
760 5 60.3697 43.0626 102.819
761 1 57.9348 45.6985 107.337
762 1 59.6733 45.0612 104.933
763 3 60.6075 47.2372 106.8
764 1 60.9835 42.4965 105.897
765 4 63.6577 45.9454 103.34
766 4 63.1346 43.3807 104.188
767 1 63.8126 43.1109 107.148
768 4 65.556 43.377 102.684
769 3 65.4385 44.3619 105.331
770 4 62.5479 45.4979 105.759
771 1 65.1155 47.1073 105.616
772 4 61.1036 47.354 104.092
773 2 66.6839 42.8593 106.908
774 4 66.5902 45.7203 103.452
775 1 68.1192 43.5209 104.827
776 1 70.4049 42.9982 103.0
777 2 70.5359 44.8552 105.538
778 5 69.3756 45.8501 103.366
779 1 68.1391 46.3255 105.953
780 2 70.4607 46.3847 107.422
781 3 68.694 44.2528 107.412
782 2 75.2263 42.5054 102.841
783 4 74.7727 44.9168 103.886
784 1 73.1699 44.7758 106.744
785 2 72.5567 43.5595 104.478
786 1 74.9489 42.6412 105.552
787 3 76.2571 44.8948 106.154
788 3 74.7886 47.3954 103.355
789 1 74.7692 47.2149 105.957
790 1 72.223 46.1277 103.792
791 1 77.4269 43.8478 103.721
792 5 79.7066 45.6625 103.488
793 3 77.0445 46.4008 104.331
794 1 77.5431 47.2836 106.847
795 1 53.3136 48.0511 103.204
796 3 55.2216 48.6153 105.513
797 5 51.3498 50.3576 102.646
798 1 53.1081 50.4127 104.927
799 3 53.0006 52.5049 103.223
800 1 55.0058 51.0456 107.03
801 4 56.0687 48.7005 103.127
802 1 58.323 47.8961 105.424
803 2 57.1885 50.2729 105.702
804 1 58.4815 50.0284 103.113
805 1 55.6242 51.5313 103.863
806 1 58.8723 52.1658 105.076
807 1 60.622 49.8189 105.353
808 2 59.0284 49.7166 107.41
809 1 60.6008 52.024 107.603
810 1 62.9803 49.3333 103.354
811 2 62.8423 48.4507 105.996
812 4 65.3917 47.9961 102.617
813 1 65.5151 50.1034 104.794
814 1 63.5886 52.3619 103.321
815 3 60.9641 51.19 103.128
816 4 64.6198 49.5609 107.654
817 1 63.0751 51.3294 106.014
818 2 65.4179 52.8174 105.581
819 1 67.8327 48.521 104.072
820 3 66.9109 48.5498 106.936
821 1 69.4726 49.0315 106.867
822 1 69.8742 50.1839 102.719
823 3 70.3736 48.0685 104.448
824 2 68.5236 50.987 105.037
825 1 66.907 52.2609 103.278
826 1 66.8987 51.2694 107.294
827 3 69.6139 51.7084 107.203
828 1 71.3196 50.7393 105.35
829 1 72.7324 49.0201 103.314
830 4 72.1164 47.8051 106.23
831 5 74.0601 50.0124 105.823
832 3 72.2475 51.6759 103.019
833 3 74.6226 50.8539 103.452
834 1 72.6126 52.2609 107.702
835 3 75.0025 51.3329 107.705
836 1 76.6387 49.0616 104.402
837 3 76.5236 49.6953 106.924
838 1 76.4974 51.9722 105.161
839 2 79.2588 47.9175 104.746
840 1 78.9291 50.3206 106.036
841 2 77.1604 51.0345 102.661
842 3 79.2321 50.0083 103.31
843 1 79.316 52.5869 104.084
844 1 53.8103 53.5073 105.534
845 2 53.0317 55.0483 102.686
846 3 54.2517 56.2418 105.181
847 1 53.8003 57.7542 103.062
848 1 55.6399 54.6107 103.465
849 1 58.4465 54.8592 104.197
850 2 56.537 53.1719 105.767
851 5 59.3425 54.555 107.007
852 2 59.3391 57.312 103.207
853 3 58.9144 56.9488 105.662
854 1 56.6625 57.4286 103.844
855 1 56.5358 55.7108 106.441
856 4 63.8712 57.3055 102.687
857 2 61.2841 53.1379 104.898
858 1 61.2118 55.8966 104.452
859 1 61.1988 56.7318 107.337
860 2 62.9962 54.8468 102.707
861 1 63.2843 54.4207 106.071
862 1 65.4632 54.9265 103.763
863 1 63.6255 57.3902 105.467
864 5 65.9235 55.6483 106.556
865 3 66.3111 57.4464 104.848
866 1 68.057 53.6401 105.909
867 1 69.8857 53.1688 103.408
868 2 71.1438 53.3872 105.72
869 3 69.9792 55.4671 105.898
870 1 68.436 55.8896 103.88
871 1 68.2881 57.2848 106.797
872 1 70.5019 58.1123 105.013
873 3 71.0498 56.6361 107.614
874 1 73.7152 52.9924 104.923
875 3 74.7222 55.1701 103.522
876 3 75.3819 53.5899 106.936
877 1 72.4103 55.7251 104.933
878 2 71.5519 56.9614 102.7
879 3 74.0969 57.6088 103.99
880 1 75.4737 55.9777 105.816
881 1 72.9851 58.1728 106.76
882 1 73.3129 55.1267 107.785
883 3 77.1741 54.4446 103.857
884 1 78.0559 54.2305 106.425
885 1 79.8244 55.5146 104.513
886 1 76.8468 57.1076 103.217
887 1 78.0478 57.3486 106.016
888 3 79.4799 57.8288 103.353
889 5 55.4452 58.3474 106.706
890 1 55.6279 60.2049 104.429
891 1 60.2807 59.1935 105.989
892 3 57.6869 59.0507 105.729
893 1 58.5607 59.9067 103.344
894 1 58.0703 61.9295 105.409
895 1 59.0832 63.3001 102.715
896 1 60.9391 61.8223 104.48
897 1 61.6283 58.8591 103.437
898 1 65.0622 59.7662 103.836
899 2 62.7579 58.9515 107.699
900 1 65.6497 59.0811 106.888
901 2 62.894 60.0361 105.507
902 4 63.624 62.2781 104.567
903 1 60.7445 61.6466 107.492
904 1 65.788 63.1838 103.324
905 1 63.7014 61.5944 107.515
906 2 66.2574 61.5265 105.633
907 4 67.9135 59.2715 104.082
908 1 68.688 60.4683 106.465
909 1 70.3667 60.0556 102.689
910 1 68.5675 62.5351 104.178
911 2 71.2994 60.3214 106.54
912 1 71.2246 62.9501 107.346
913 2 72.7723 59.6648 104.534
914 1 75.5554 59.1245 105.705
915 2 75.6627 59.4171 102.832
916 1 74.5688 61.6265 103.842
917 1 73.782 61.407 106.68
918 1 71.4625 62.0495 104.492
919 1 77.9761 59.8983 104.232
920 2 60.9681 64.9846 103.931
921 1 63.8175 65.2919 104.137
922 2 62.1911 63.8213 106.131
923 1 65.2871 63.938 106.439
924 5 66.2717 66.3968 102.807
925 3 67.257 64.8989 104.821
926 1 68.2623 63.4905 106.995
927 1 69.2184 65.4555 102.988
928 2 70.3844 64.5121 105.254
929 1 72.1453 64.5603 102.887
930 3 73.3133 63.7751 105.283
931 1 68.6922 41.8242 108.474
932 1 59.3574 47.4621 109.182
933 1 60.8068 44.7498 108.001
934 1 63.2513 46.7849 108.23
935 1 65.8293 42.5697 109.427
936 1 63.3061 44.272 109.853
937 3 61.5337 46.2774 110.233
938 3 65.6867 45.1705 110.544
939 1 63.9493 47.0898 111.39
940 1 65.9809 45.2434 107.889
941 1 68.2387 44.272 110.104
942 1 70.9641 44.0936 108.723
943 1 67.4774 46.8594 111.55
944 5 68.3248 46.788 108.78
945 2 70.3139 46.2522 110.635
946 3 75.3182 45.9858 108.271
947 1 72.6803 46.6883 108.992
948 1 56.682 48.5739 107.882
949 1 58.8498 50.2847 110.02
950 1 57.601 52.0878 108.006
951 1 61.358 48.7225 111.31
952 1 61.6148 49.3251 108.375
953 4 63.9362 49.7766 110.145
954 5 63.4327 50.4765 112.754
955 4 65.765 47.8011 109.311
956 2 63.2139 51.7615 108.601
957 1 63.9755 52.7742 111.009
958 3 65.8285 52.1682 112.778
959 1 61.3482 51.6712 110.747
960 1 66.1297 49.4582 112.028
961 2 66.0674 51.4599 110.016
962 1 69.6399 48.8379 111.843
963 2 70.4462 48.3164 109.225
964 1 67.9716 49.5943 109.485
965 2 71.1152 51.2576 112.296
966 3 68.2583 52.5144 109.272
967 1 68.292 51.5682 111.845
968 1 70.5796 51.088 109.615
969 1 72.4536 48.9624 110.878
970 2 72.2821 49.5926 107.998
971 1 74.8274 48.7441 108.663
972 3 73.7183 50.9544 109.802
973 1 77.4717 51.9353 108.168
974 2 55.1671 53.7337 107.959
975 2 59.5689 53.3991 109.776
976 1 57.4128 54.8572 109.168
977 1 58.2498 57.501 108.157
978 3 60.0049 55.9165 109.645
979 1 62.1199 54.3019 108.804
980 1 65.2341 53.5583 108.33
981 2 64.2171 55.3673 110.222
982 1 61.8281 54.8407 111.654
983 2 63.8815 56.584 108.059
984 1 62.2866 57.4625 110.133
985 1 64.9008 57.4155 111.839
986 1 64.6594 54.7734 112.99
987 1 66.2726 56.9145 109.244
988 2 67.7095 54.7616 108.355
989 1 66.7301 54.2345 110.919
990 1 69.6853 54.109 111.207
991 1 70.2701 54.0536 108.201
992 2 67.6867 56.7266 111.848
993 1 69.244 56.6608 109.583
994 2 70.9121 56.6268 111.883
995 3 75.0654 57.2159 108.19
996 3 71.6787 55.4489 109.854
997 1 72.4845 53.151 110.735
998 1 75.1717 53.2526 109.554
999 4 74.2823 55.81 110.581
1000 1 72.4932 57.8722 109.669
1001 2 76.6334 55.3097 108.44
1002 1 58.0718 60.3966 107.94
1003 3 60.3972 59.0198 108.727
1004 2 62.1206 60.5463 109.697
1005 1 64.6341 59.4129 109.675
1006 3 70.282 58.863 108.169
1007 1 66.4503 61.5962 108.551
1008 2 67.1393 59.2843 111.031