ITEM: TIMESTEP
89
ITEM: NUMBER OF ATOMS
270
ITEM: BOX BOUNDS ss ss ss
7.3089386011999991e+01 9.2834013988000009e+01
4.7714365570000005e+01 6.7063334430000012e+01
8.1015742601777788e+01 1.0146837638059189e+02
ITEM: ATOMS id type x y z fx fy fz
1 5 77.9685 51.2631 83.9539 -0.737113 -0.689397 0.215054
2 4 80.1063 52.0275 82.7207 1.18457 -0.344475 -0.0556447
3 3 82.8195 50.911 84.1627 0.560037 0.449275 -0.514492
4 2 85.4696 51.5864 84.0531 0.0657329 0.0151417 -0.165386
5 5 74.4557 56.5642 83.8589 -1.21429 0.309943 0.828159
6 1 76.0452 53.3065 84.653 1.07176 0.395289 -1.06046
7 4 76.5403 53.1111 81.7565 0.359696 -0.148014 0.267516
8 2 76.2574 55.3964 82.9538 -0.460556 -0.845981 1.78216
9 1 77.7722 55.6551 81.2126 2.05847 0.0717411 -2.59383
10 1 78.803 54.2022 83.7172 -0.000549643 0.000580857 0.000129496
11 2 80.2687 54.3953 81.4741 0.592108 -0.0862772 -0.531134
12 1 82.9243 53.2453 82.5966 0.381238 0.276339 1.17153
13 2 85.6058 54.3539 83.9389 0.210359 -0.30623 -0.103679
14 1 80.5461 56.6328 82.8808 0.000146161 -0.000518199 -0.000183204
15 1 83.0163 56.112 81.7585 1.1512 0.270984 0.833254
16 3 81.4425 54.3972 84.3306 -7.843e-06 -1.88929e-06 -0.000462931
17 1 83.6977 55.868 84.9793 0.000478539 -0.000256024 0.000463736
18 2 88.8612 55.6785 84.5427 0.318178 0.0496404 0.0562539
19 1 85.9067 57.1468 83.4477 -0.0253309 0.305213 -0.0581834
20 4 87.9548 52.9857 84.3593 -0.101211 0.23765 0.435222
21 1 76.9661 50.8842 87.0698 0.203682 -0.51419 -0.46499
22 1 79.6183 49.8522 86.556 0.403101 0.0625826 -0.131757
23 2 78.803 52.5452 85.881 0.000268904 -0.000125818 0.000314665
24 1 81.3664 52.2002 85.8715 0.000270763 0.000621396 -0.000428189
25 3 82.3839 51.1002 88.2483 0.000122826 8.61084e-05 0.000260538
26 1 79.8736 51.7871 88.7128 -0.000137715 2.48063e-05 -0.000335524
27 5 82.5636 49.4882 86.2652 0.30686 -0.190525 0.593999
28 1 85.5545 50.1119 86.4498 -0.222604 0.401581 0.673524
29 1 84.8957 51.7722 88.8201 -0.000270532 0.000168578 -4.90999e-05
30 2 88.4449 50.2666 88.3997 0.892097 -0.0158186 -0.216476
31 3 89.4833 51.2443 86.7386 0.50827 1.24749 -1.03471
32 3 74.7662 52.8621 86.6005 -0.184083 -1.16128 1.16174
33 3 78.3046 56.4498 88.1721 -0.000308744 0.000429475 -6.63118e-05
34 1 74.9656 55.6483 86.6614 1.6151 0.482357 -1.02788
35 3 73.0918 56.7986 87.7303 -0.726545 0.479747 1.50375
36 1 77.2672 53.6604 87.5862 -0.000455147 -0.000169993 5.31313e-05
37 5 73.5855 54.0902 88.3146 -0.573313 -0.185687 2.10565
38 4 79.9463 54.4451 87.0402 -0.000280982 0.000171598 0.00030501
39 4 81.0504 57.1692 88.7004 -0.000500052 -0.000187016 -1.8459e-05
40 1 77.6662 55.8524 85.7131 0.000164954 0.000264518 0.000447749
41 1 80.8832 56.6044 85.7113 0.00011104 -0.00048816 0.000175416
42 2 83.4743 57.558 87.2894 -0.000605593 0.000665669 0.000668287
43 4 82.489 54.7957 87.4115 -0.000102482 -0.000275176 0.000486768
44 2 85.016 54.6204 87.829 -4.81883e-05 9.53428e-05 -7.46264e-05
45 1 84.1755 52.8672 85.9092 -0.000664279 -1.57037e-06 0.000257623
46 1 90.0909 53.855 86.9831 -0.941132 0.350558 0.126917
47 1 87.1824 52.7 87.0041 0.000643574 0.000289449 0.000198491
48 1 90.7742 56.6551 87.522 0.129124 -0.34752 -0.650566
49 1 86.9734 55.6051 86.2745 0.000199088 0.00041833 -9.11587e-05
50 2 88.3473 55.0678 88.7237 -2.80792e-05 0.000240352 0.000225973
51 5 75.6729 51.9304 89.2646 -0.424883 0.0440709 0.593702
52 1 78.1167 50.0027 90.2276 0.237722 0.552285 -0.219024
53 1 77.6451 51.8354 92.5267 0.814922 -0.504248 -0.2225
54 2 80.2324 51.6205 91.542 0.000157913 5.51525e-05 1.44647e-05
55 1 82.754 50.6268 91.0693 5.67688e-05 5.01298e-05 0.000848257
56 1 80.826 48.7178 92.177 -0.740566 0.794112 -0.307891
57 2 80.5388 48.9292 89.3078 0.597227 0.563375 -0.0887327
58 3 82.8984 47.7167 91.2898 0.847162 -0.419983 0.993917
59 1 87.7698 52.3277 89.957 -0.000572899 -0.000458943 0.000312681
60 1 85.515 51.7575 91.8716 0.000349564 0.000387399 -0.000391389
61 2 85.4143 49.0732 92.0204 0.563916 0.292943 -1.34132
62 1 86.6715 49.4831 89.751 -1.82951 -0.445015 1.11896
63 1 88.298 50.0655 92.7612 -2.67974 -1.20057 -0.0837808
64 1 83.6352 48.773 89.201 0.882694 0.691552 -2.03383
65 1 90.1774 50.6585 91.2829 2.40906 1.38527 -2.61181
66 3 90.1179 52.3983 89.1966 1.0028 0.413792 -0.23642
67 2 76.3504 57.056 91.5995 0.000318126 0.00021344 -0.000319093
68 1 73.8772 56.1397 90.4884 -0.440247 0.238085 -0.0829967
69 1 74.965 53.4893 91.5445 0.596376 0.303583 0.897207
70 1 76.3989 55.1586 89.688 -0.00021851 0.000517502 0.00115929
71 2 77.9374 52.9919 90.2292 -3.572e-05 -0.000166282 0.000555049
72 3 77.3467 54.6388 92.2305 -2.06987e-05 4.28516e-05 -8.60928e-05
73 4 82.4265 53.0432 92.7499 0.000195163 -0.000856801 0.000417077
74 1 78.7307 56.6854 90.8111 0.000193112 9.06164e-05 -0.00032989
75 2 81.3912 56.2226 91.2745 0.000101533 0.000351863 0.000147756
76 5 79.9505 54.4944 89.6906 0.00121375 0.000174991 1.10522e-05
77 1 82.5612 53.3791 89.8468 0.000366294 -0.000485039 0.000598686
78 1 79.8991 54.2369 92.6388 -1.56913e-06 0.000308635 0.000679007
79 1 86.2168 57.0539 88.8955 0.000486874 0.000409097 6.21853e-05
80 1 87.2843 56.9489 91.6812 3.38446e-06 -0.000140712 -8.07539e-05
81 1 85.895 54.4584 90.3554 -0.000165098 0.000474798 0.000865155
82 4 83.7297 55.0771 91.9455 -0.000378479 -0.000606497 1.82039e-05
83 3 88.2714 52.6252 92.4949 0.000233409 0.000335942 0.000230512
84 4 83.5431 56.3638 89.6021 0.000301768 -0.000120165 0.000139754
85 2 88.5921 54.7512 91.1877 -0.000236046 0.000685948 0.000155522
86 1 91.9083 54.6145 89.9621 0.196874 1.30093 -2.52841
87 1 90.04 56.9098 90.2688 0.000311904 -0.000219152 -0.000331755
88 1 90.6908 53.5148 91.9387 0.0699778 -1.21204 1.1348
89 1 92.2618 56.1678 92.9818 0.428455 -0.74795 -2.15949
90 2 92.8316 57.3836 90.2616 -0.2512 -0.609013 -0.623932
91 1 80.1025 50.2196 94.3717 0.000576749 1.36228 0.581121
92 1 83.2857 49.7501 96.3224 0.168208 1.09096 0.607423
93 2 82.612 50.7371 93.7175 -3.44768e-05 0.000243236 0.000557877
94 1 84.1218 48.6784 93.9853 -0.621402 -0.446392 0.206333
95 3 81.2057 51.1092 97.0145 -1.21001 -0.582192 0.746694
96 2 86.9448 49.4113 94.6631 -1.06626 -1.08293 0.0899267
97 1 85.0562 51.852 94.6787 0.000585276 -0.000189736 -9.61788e-05
98 1 88.2155 51.8336 95.0149 -1.07099 0.880225 1.40889
99 3 85.9911 50.3404 96.4642 0.317289 -0.391108 0.994933
100 3 90.4895 51.9029 94.0453 0.90411 -0.102733 -0.26083
101 1 76.7007 53.1963 94.6558 0.135642 1.14938 0.770927
102 3 78.3961 55.1559 94.689 -3.74712e-05 -0.000431183 0.000191411
103 1 75.9568 56.1096 93.8988 0.41611 -0.594834 0.729195
104 1 79.3354 57.3186 93.61 0.000180814 0.00032396 -2.95343e-05
105 2 79.7025 52.8573 94.9823 -0.12548 -0.284519 -2.34278
106 3 77.2798 55.1801 96.7939 0.580283 -0.248398 -0.232138
107 1 79.2099 52.9533 97.3071 0.050681 1.06158 1.11604
108 1 82.3428 52.6943 95.5647 -0.000131828 0.000175015 0.0011668
109 1 80.8839 55.2919 95.6598 -0.000577722 -0.000364623 -0.000236095
110 1 84.0333 54.8222 94.7964 -0.000163641 0.000983761 7.48698e-05
111 2 82.0914 56.4687 93.6156 -0.000239007 0.000888684 0.000472273
112 1 89.1716 57.1273 95.9067 1.42031e-05 0.000812349 0.000114218
113 5 86.556 56.125 95.7218 -0.000176306 -0.000499913 -0.000970886
114 2 88.9468 54.4065 96.8264 -0.000535922 0.000570252 0.000371236
115 2 86.5478 53.5476 96.3703 3.49069e-05 0.00061766 -0.000170538
116 1 86.6719 54.4098 93.4246 -0.000819832 0.000805953 -0.000298006
117 1 91.0592 52.5841 96.9263 -0.800613 -0.230726 -0.816121
118 1 89.6413 54.6294 94.3336 -0.000434084 0.000130497 -0.000567285
119 2 91.5939 56.8172 95.2314 0.202054 0.028606 0.744778
120 4 92.7177 53.8589 95.1341 -0.380647 0.43398 -0.550816
121 1 85.1976 51.9296 98.1651 -0.562137 1.28044 -0.050463
122 1 88.445 51.7665 97.9452 -0.555044 -0.200671 -0.286741
123 1 80.3112 55.5884 98.405 -0.0502826 0.175364 -0.351017
124 4 86.1805 56.5328 98.7507 4.04123e-05 -0.000223713 -0.000296591
125 4 84.4648 54.9391 97.5578 -0.000534215 0.000251028 -0.000124
126 4 87.5718 56.0314 101.466 -0.369868 -0.00132215 -0.248008
127 4 84.3391 55.3965 100.212 -0.26359 0.084313 0.0294317
128 1 82.4157 53.2719 98.4413 -0.623092 0.105369 -0.335483
129 1 87.6009 54.2321 99.069 -0.861133 -0.648623 0.576289
130 1 90.65 53.9745 99.4792 -1.05987 -0.864465 1.2584
131 2 90.1134 56.2829 101.141 -0.51121 0.0364483 0.600974
132 1 89.2732 56.5726 98.6764 -0.00024496 -0.000307166 -0.000317212
133 2 92.1556 56.5849 100.052 0.478164 0.0437385 -0.928811
134 1 91.5757 55.4736 97.4502 1.23708 0.267445 -1.25322
135 1 75.7292 59.15 83.9665 -0.561598 -0.133272 -0.341155
136 1 75.4571 57.5965 81.31 0.798273 0.0514004 0.485267
137 3 78.2476 60.0774 83.9552 0.000508043 -0.00015106 -0.000252076
138 1 77.0565 60.1615 81.674 -0.0719772 0.395339 -1.32366
139 2 78.5977 58.2496 81.041 0.8571 -0.274324 -0.528866
140 2 78.9893 62.1207 83.0778 0.579056 0.392175 0.337992
141 1 80.7294 59.5328 83.8316 -1.93889e-05 0.000774114 -4.09928e-05
142 3 79.6162 60.8391 81.1718 0.527263 -0.735009 0.270909
143 1 76.1975 62.1256 83.5265 1.99884 1.70387 -0.962216
144 1 77.9084 57.5145 83.439 9.68377e-06 -6.50497e-05 -0.000567153
145 1 81.3037 58.7071 81.0182 0.899989 0.290763 0.529255
146 3 84.2137 59.1296 81.7539 -0.376918 -0.605413 0.780689
147 1 82.6788 61.1805 82.6395 0.656399 -0.610141 -0.0226307
148 2 83.2145 58.4058 84.0624 -0.000263523 0.000570228 4.15564e-05
149 1 85.8645 60.4271 84.306 0.0270577 0.109653 -0.464883
150 3 84.5284 62.8537 84.9406 0.0656713 0.0559369 0.129714
151 1 81.6605 63.0755 84.5007 0.369969 0.0778225 0.252944
152 1 74.4981 61.3256 85.3105 -2.1188 0.0179276 2.33898
153 3 75.5164 60.1918 87.5982 -0.000320937 0.000202499 -0.000122836
154 1 73.7649 58.5079 85.8841 -0.228724 -0.033232 0.650602
155 3 73.4335 59.3537 88.3509 0.0741263 -0.11991 0.897237
156 1 75.8971 57.9481 88.8615 0.000286117 -9.12352e-05 0.000253437
157 3 76.4313 58.1752 86.3085 0.000410166 -2.19275e-05 5.37574e-05
158 1 77.5029 61.7389 89.0014 0.000331482 -7.6744e-05 -0.000301473
159 1 77.3954 61.0134 86.1471 4.51246e-05 -3.14827e-05 0.000126542
160 1 80.3316 61.1585 86.4742 0.000212249 0.000231196 -9.06065e-05
161 2 79.9574 61.3742 89.7762 6.94194e-05 4.19294e-05 0.000320712
162 4 78.9213 58.5257 85.9388 0.000237154 -0.000207858 -0.000816231
163 1 78.8806 59.1114 88.5825 -6.09277e-05 -0.00023609 0.000183922
164 1 82.0943 60.1927 88.7988 -0.000285914 -0.000167175 0.000470293
165 1 83.4026 60.6985 85.935 0.000234317 0.000406821 0.000109406
166 1 85.0137 59.7562 88.5309 0.000585039 0.000746739 0.000547562
167 1 85.7448 58.2808 86.1296 0.000287205 -2.4474e-05 -0.000103092
168 3 85.9578 61.5479 86.8948 7.05689e-05 -0.000132535 0.000274432
169 3 81.6093 58.8886 86.4715 -0.000637989 0.000617034 0.000156806
170 4 89.3081 61.1509 85.5844 -0.357435 -0.348128 0.143867
171 3 87.682 59.9513 87.469 -0.000430563 0.000330771 -0.000502301
172 1 88.6159 58.3684 85.3063 -0.496298 -0.230762 0.63653
173 3 88.4965 57.7166 87.9356 -0.000170797 -0.000346584 -0.000119324
174 1 89.0854 62.2284 88.1415 0.369994 -0.411946 -0.211471
175 1 90.8248 59.5436 88.4179 -0.862027 -0.226018 0.33966
176 3 74.7498 62.5961 87.6551 -0.394442 -0.496259 0.71591
177 2 77.4886 66.014 88.9659 -0.858112 0.618335 0.70061
178 1 76.6845 63.9214 86.8324 -0.920989 0.884524 1.37204
179 5 80.7335 65.7642 85.4385 0.970129 -0.163398 -0.453613
180 2 79.2679 63.1231 87.9537 0.00023326 0.000132819 0.000198109
181 1 79.6262 65.6746 87.8855 1.58475 0.311752 0.413882
182 1 81.7948 63.629 87.4791 -4.91073e-05 -8.8609e-06 0.000333277
183 1 78.8141 63.5552 85.3401 1.48942 0.181058 -1.45473
184 2 84.1903 62.6751 88.1055 0.000235901 -0.000493681 0.000223292
185 1 86.7771 64.2475 87.7185 -0.432693 -0.355238 0.241208
186 2 82.7968 66.5198 88.0225 -0.459195 0.348942 0.466115
187 1 83.8065 65.1098 86.1996 1.23308 -0.994545 -0.252689
188 3 85.653 66.5723 88.4032 -0.126223 -0.826838 -0.740947
189 2 87.1662 62.9021 85.4425 0.234076 -0.0308097 -0.445216
190 1 75.0656 61.3127 90.0458 -1.29211 -0.0079936 0.788887
191 1 77.5415 59.5663 91.2327 -0.000390228 -0.000197563 -0.000332836
192 1 74.5509 58.8749 91.3783 -0.429944 0.209419 0.694228
193 1 76.1603 61.2727 93.2396 0.48507 -0.0630457 -0.0798424
194 3 78.2707 62.1361 91.7354 -0.000132696 0.000433143 -0.000324576
195 1 81.3477 61.4805 92.0421 4.0762e-05 -3.23113e-05 -4.6995e-05
196 1 84.4251 60.3002 93.3585 -9.13716e-05 -0.000129193 -0.000208486
197 5 80.4028 58.94 91.2667 0.000174076 -0.000309706 0.000285456
198 3 86.8033 60.7334 92.0654 0.000287354 -8.79213e-05 0.000526369
199 1 84.1143 61.4987 90.778 0.000171821 3.92994e-05 0.000149048
200 2 85.6405 58.9505 91.0141 1.37881e-06 5.48614e-05 -2.29739e-05
201 4 83.0632 58.5734 91.1524 -0.000942867 2.58158e-05 -0.000550209
202 1 86.8188 61.9445 89.7163 -0.000262023 0.00119176 0.000212012
203 1 91.8349 59.2537 91.7649 -0.274927 0.493585 -0.0824116
204 1 89.7914 57.6245 93.1254 0.000379818 -0.000381462 -0.000383046
205 2 90.6289 61.7518 90.8357 -0.0822036 0.176915 -0.716394
206 1 89.422 60.6402 92.8242 0.000212981 0.000632729 0.000486538
207 1 88.3949 59.4678 90.1366 -0.000346614 9.00679e-05 0.000410055
208 2 76.7979 63.9449 92.9539 0.207303 -0.641154 -0.039629
209 1 76.1717 64.1311 90.029 0.535755 -0.884812 0.746301
210 1 78.1815 65.9615 92.036 -0.311799 -0.686371 0.189644
211 1 82.5019 65.4656 90.4159 -0.325169 0.117189 0.16992
212 3 83.1509 66.621 92.9426 0.737846 0.202346 -0.286951
213 5 80.2259 67.061 90.756 0.496713 0.0908282 -0.641921
214 3 81.0159 65.8274 93.2476 -1.01837 0.014164 -0.321965
215 1 82.8896 63.9314 92.9297 9.99054e-05 7.12737e-05 0.000480819
216 2 82.0752 62.8974 89.9272 -0.000622155 -0.000359573 5.3413e-05
217 1 79.6514 64.0621 90.5047 -8.31184e-05 -0.000282992 0.000112858
218 1 87.5882 65.8614 91.0466 -0.563912 0.22783 -0.502219
219 5 85.4984 65.4747 92.8009 0.246854 -0.0430153 0.112489
220 3 85.1809 62.8135 92.8356 -0.000236491 8.47199e-05 0.000519399
221 1 85.1231 64.2952 90.176 -7.2463e-05 0.000104528 -5.87612e-05
222 3 84.8755 66.9311 90.4941 -0.408221 0.121642 1.26691
223 1 87.6479 63.2757 92.5281 -0.000405112 -0.000355867 0.00060991
224 2 89.0756 63.8523 90.4504 0.508088 -0.615971 -0.818663
225 3 77.5944 60.2165 95.904 -0.0103602 -0.374789 0.184951
226 1 78.5522 57.6395 96.4665 0.23156 -0.298623 -0.399213
227 1 79.2111 60.4432 93.8694 -0.000199657 -0.000608432 -0.000489634
228 2 76.9394 58.6815 93.81 -0.115151 -0.220696 -0.0107877
229 1 83.1005 60.31 96.7254 -0.000132285 -0.000122431 2.81676e-05
230 3 81.182 57.8765 96.3588 4.94056e-07 -0.000599833 0.000228216
231 2 85.4144 59.917 95.6934 0.000261168 -0.000270499 7.63911e-05
232 3 82.4675 61.7643 94.3904 0.000248676 -9.45781e-05 0.000170437
233 1 81.846 59.0966 94.1355 4.01907e-06 0.000253339 0.000487241
234 1 84.7823 57.3533 93.2268 -0.000127747 0.000527429 -6.04645e-06
235 1 83.9573 57.5575 96.0513 -0.000298245 0.000797612 0.000597318
236 3 89.0378 62.1723 94.7558 0.00128712 0.000690925 -0.00244214
237 1 87.8769 61.3741 96.7555 -0.00209044 -0.00127722 0.00277985
238 2 89.6676 59.7438 95.3859 0.000348946 0.000286415 0.000335923
239 1 87.0166 58.5987 97.1664 -0.000400363 0.00105573 0.0004806
240 1 87.2579 58.8845 94.0869 -0.000300637 -0.000128009 0.000510255
241 2 89.3691 59.1972 97.8093 -0.000837017 0.000411107 -0.000384693
242 2 91.4504 61.7386 95.3608 -0.441269 0.423724 -0.518933
243 1 92.2865 59.3097 94.7833 -0.340402 -0.180495 -0.950084
244 2 92.3551 61.6751 93.3511 0.219287 -0.13578 -1.96579
245 1 78.4267 62.7212 95.6017 -1.26299 -1.04383 1.63362
246 2 84.8125 65.3276 95.2127 0.744531 0.338429 0.252403
247 1 84.7262 62.6557 95.5765 0.000160747 -3.19301e-05 0.000111555
248 2 81.2713 62.3797 96.2621 -0.657628 0.0787897 0.228143
249 1 82.4741 64.6815 95.8422 -0.993889 -0.692425 -0.623872
250 1 79.8403 63.5268 93.6335 1.3591 0.852646 -1.99259
251 3 88.6452 65.556 93.9253 0.438394 1.07272 -1.55318
252 2 86.7614 61.5366 94.3555 -0.000286083 0.000592329 -0.00030431
253 1 87.3844 64.2335 95.4593 -0.658691 -1.27685 0.570101
254 3 90.2143 63.8174 95.9337 0.0105891 0.548101 -0.250172
255 1 90.3808 63.7097 93.3248 0.774779 -0.290003 -1.0653
256 1 80.4576 60.2019 97.5713 -0.987251 -0.794191 -0.574021
257 1 85.4535 58.2703 101.063 -0.993015 -0.236952 -0.176449
258 3 85.675 60.9425 97.9183 0.000826501 -0.000275038 -0.000974711
259 2 84.9155 58.7618 98.529 0.000257186 -0.00148802 -0.000114982
260 2 83.3645 60.2835 99.5086 -0.342308 0.0235591 0.393364
261 1 86.3026 61.037 100.449 -1.76905 0.0466177 -0.268493
262 1 82.5843 57.6554 98.5991 -0.725532 -0.444685 0.603637
263 1 88.8386 61.351 99.4975 -0.000839669 0.647513 1.17201
264 1 91.0018 59.1056 99.9919 -0.439909 0.211681 1.31838
265 1 88.0804 58.6251 100.136 -0.547662 0.147856 0.711904
266 1 90.8014 61.3724 97.6247 1.32285 -0.277818 0.304329
267 1 91.8348 58.4841 97.4906 0.769935 -0.670653 -1.00104
268 1 83.8968 62.6775 98.3692 -0.895063 0.753866 -0.0483153
269 2 89.4352 63.5985 98.0958 -0.6731 0.537883 0.548331
270 1 86.674 63.6585 98.1847 -0.45871 -0.643128 0.338265
ITEM: TIMESTEP
90
ITEM: NUMBER OF ATOMS
270
ITEM: BOX BOUNDS ss ss ss
7.3089386011999991e+01 9.2834013988000009e+01
4.7714365570000005e+01 6.7063334430000012e+01
8.1015742601777788e+01 1.0146837638059189e+02
ITEM: ATOMS id type x y z fx fy fz
1 5 77.9685 51.2631 83.9539 -0.737113 -0.689397 0.215054
2 4 80.1063 52.0275 82.7207 1.18457 -0.344475 -0.0556447
3 3 82.8195 50.911 84.1627 0.560037 0.449275 -0.514492
4 2 85.4696 51.5864 84.0531 0.0657329 0.0151417 -0.165386
5 5 74.4557 56.5642 83.8589 -1.21429 0.309943 0.828159
6 1 76.0452 53.3065 84.653 1.07176 0.395289 -1.06046
7 4 76.5403 53.1111 81.7565 0.359696 -0.148014 0.267516
8 2 76.2574 55.3964 82.9538 -0.460556 -0.845981 1.78216
9 1 77.7722 55.6551 81.2126 2.05847 0.0717411 -2.59383
10 1 78.803 54.2022 83.7172 -0.000549643 0.000580857 0.000129496
11 2 80.2687 54.3953 81.4741 0.592108 -0.0862772 -0.531134
12 1 82.9243 53.2453 82.5966 0.381238 0.276339 1.17153
13 2 85.6058 54.3539 83.9389 0.210359 -0.30623 -0.103679
14 1 80.5461 56.6328 82.8808 0.000146161 -0.000518199 -0.000183204
15 1 83.0163 56.112 81.7585 1.1512 0.270984 0.833254
16 3 81.4425 54.3972 84.3306 -7.843e-06 -1.88929e-06 -0.000462931
17 1 83.6977 55.868 84.9793 0.000478539 -0.000256024 0.000463736
18 2 88.8612 55.6785 84.5427 0.318178 0.0496404 0.0562539
19 1 85.9067 57.1468 83.4477 -0.0253309 0.305213 -0.0581834
20 4 87.9548 52.9857 84.3593 -0.101211 0.23765 0.435222
21 1 76.9661 50.8842 87.0698 0.203682 -0.51419 -0.46499
22 1 79.6183 49.8522 86.556 0.403101 0.0625826 -0.131757
23 2 78.803 52.5452 85.881 0.000268904 -0.000125818 0.000314665
24 1 81.3664 52.2002 85.8715 0.000270763 0.000621396 -0.000428189
25 3 82.3839 51.1002 88.2483 0.000122826 8.61084e-05 0.000260538
26 1 79.8736 51.7871 88.7128 -0.000137715 2.48063e-05 -0.000335524
27 5 82.5636 49.4882 86.2652 0.30686 -0.190525 0.593999
28 1 85.5545 50.1119 86.4498 -0.222604 0.401581 0.673524
29 1 84.8957 51.7722 88.8201 -0.000270532 0.000168578 -4.90999e-05
30 2 88.4449 50.2666 88.3997 0.892097 -0.0158186 -0.216476
31 3 89.4833 51.2443 86.7386 0.50827 1.24749 -1.03471
32 3 74.7662 52.8621 86.6005 -0.184083 -1.16128 1.16174
33 3 78.3046 56.4498 88.1721 -0.000308744 0.000429475 -6.63118e-05
34 1 74.9656 55.6483 86.6614 1.6151 0.482357 -1.02788
35 3 73.0918 56.7986 87.7303 -0.726545 0.479747 1.50375
36 1 77.2672 53.6604 87.5862 -0.000455147 -0.000169993 5.31313e-05
37 5 73.5855 54.0902 88.3146 -0.573313 -0.185687 2.10565
38 4 79.9463 54.4451 87.0402 -0.000280982 0.000171598 0.00030501
39 4 81.0504 57.1692 88.7004 -0.000500052 -0.000187016 -1.8459e-05
40 1 77.6662 55.8524 85.7131 0.000164954 0.000264518 0.000447749
41 1 80.8832 56.6044 85.7113 0.00011104 -0.00048816 0.000175416
42 2 83.4743 57.558 87.2894 -0.000605593 0.000665669 0.000668287
43 4 82.489 54.7957 87.4115 -0.000102482 -0.000275176 0.000486768
44 2 85.016 54.6204 87.829 -4.81883e-05 9.53428e-05 -7.46264e-05
45 1 84.1755 52.8672 85.9092 -0.000664279 -1.57037e-06 0.000257623
46 1 90.0909 53.855 86.9831 -0.941132 0.350558 0.126917
47 1 87.1824 52.7 87.0041 0.000643574 0.000289449 0.000198491
48 1 90.7742 56.6551 87.522 0.129124 -0.34752 -0.650566
49 1 86.9734 55.6051 86.2745 0.000199088 0.00041833 -9.11587e-05
50 2 88.3473 55.0678 88.7237 -2.80792e-05 0.000240352 0.000225973
51 5 75.6729 51.9304 89.2646 -0.424883 0.0440709 0.593702
52 1 78.1167 50.0027 90.2276 0.237722 0.552285 -0.219024
53 1 77.6451 51.8354 92.5267 0.814922 -0.504248 -0.2225
54 2 80.2324 51.6205 91.542 0.000157913 5.51525e-05 1.44647e-05
55 1 82.754 50.6268 91.0693 5.67688e-05 5.01298e-05 0.000848257
56 1 80.826 48.7178 92.177 -0.740566 0.794112 -0.307891
57 2 80.5388 48.9292 89.3078 0.597227 0.563375 -0.0887327
58 3 82.8984 47.7167 91.2898 0.847162 -0.419983 0.993917
59 1 87.7698 52.3277 89.957 -0.000572899 -0.000458943 0.000312681
60 1 85.515 51.7575 91.8716 0.000349564 0.000387399 -0.000391389
61 2 85.4143 49.0732 92.0204 0.563916 0.292943 -1.34132
62 1 86.6715 49.4831 89.751 -1.82951 -0.445015 1.11896
63 1 88.298 50.0655 92.7612 -2.67974 -1.20057 -0.0837808
64 1 83.6352 48.773 89.201 0.882694 0.691552 -2.03383
65 1 90.1774 50.6585 91.2829 2.40906 1.38527 -2.61181
66 3 90.1179 52.3983 89.1966 1.0028 0.413792 -0.23642
67 2 76.3504 57.056 91.5995 0.000318126 0.00021344 -0.000319093
68 1 73.8772 56.1397 90.4884 -0.440247 0.238085 -0.0829967
69 1 74.965 53.4893 91.5445 0.596376 0.303583 0.897207
70 1 76.3989 55.1586 89.688 -0.00021851 0.000517502 0.00115929
71 2 77.9374 52.9919 90.2292 -3.572e-05 -0.000166282 0.000555049
72 3 77.3467 54.6388 92.2305 -2.06987e-05 4.28516e-05 -8.60928e-05
73 4 82.4265 53.0432 92.7499 0.000195163 -0.000856801 0.000417077
74 1 78.7307 56.6854 90.8111 0.000193112 9.06164e-05 -0.00032989
75 2 81.3912 56.2226 91.2745 0.000101533 0.000351863 0.000147756
76 5 79.9505 54.4944 89.6906 0.00121375 0.000174991 1.10522e-05
77 1 82.5612 53.3791 89.8468 0.000366294 -0.000485039 0.000598686
78 1 79.8991 54.2369 92.6388 -1.56913e-06 0.000308635 0.000679007
79 1 86.2168 57.0539 88.8955 0.000486874 0.000409097 6.21853e-05
80 1 87.2843 56.9489 91.6812 3.38446e-06 -0.000140712 -8.07539e-05
81 1 85.895 54.4584 90.3554 -0.000165098 0.000474798 0.000865155
82 4 83.7297 55.0771 91.9455 -0.000378479 -0.000606497 1.82039e-05
83 3 88.2714 52.6252 92.4949 0.000233409 0.000335942 0.000230512
84 4 83.5431 56.3638 89.6021 0.000301768 -0.000120165 0.000139754
85 2 88.5921 54.7512 91.1877 -0.000236046 0.000685948 0.000155522
86 1 91.9083 54.6145 89.9621 0.196874 1.30093 -2.52841
87 1 90.04 56.9098 90.2688 0.000311904 -0.000219152 -0.000331755
88 1 90.6908 53.5148 91.9387 0.0699778 -1.21204 1.1348
89 1 92.2618 56.1678 92.9818 0.428455 -0.74795 -2.15949
90 2 92.8316 57.3836 90.2616 -0.2512 -0.609013 -0.623932
91 1 80.1025 50.2196 94.3717 0.000576749 1.36228 0.581121
92 1 83.2857 49.7501 96.3224 0.168208 1.09096 0.607423
93 2 82.612 50.7371 93.7175 -3.44768e-05 0.000243236 0.000557877
94 1 84.1218 48.6784 93.9853 -0.621402 -0.446392 0.206333
95 3 81.2057 51.1092 97.0145 -1.21001 -0.582192 0.746694
96 2 86.9448 49.4113 94.6631 -1.06626 -1.08293 0.0899267
97 1 85.0562 51.852 94.6787 0.000585276 -0.000189736 -9.61788e-05
98 1 88.2155 51.8336 95.0149 -1.07099 0.880225 1.40889
99 3 85.9911 50.3404 96.4642 0.317289 -0.391108 0.994933
100 3 90.4895 51.9029 94.0453 0.90411 -0.102733 -0.26083
101 1 76.7007 53.1963 94.6558 0.135642 1.14938 0.770927
102 3 78.3961 55.1559 94.689 -3.74712e-05 -0.000431183 0.000191411
103 1 75.9568 56.1096 93.8988 0.41611 -0.594834 0.729195
104 1 79.3354 57.3186 93.61 0.000180814 0.00032396 -2.95343e-05
105 2 79.7025 52.8573 94.9823 -0.12548 -0.284519 -2.34278
106 3 77.2798 55.1801 96.7939 0.580283 -0.248398 -0.232138
107 1 79.2099 52.9533 97.3071 0.050681 1.06158 1.11604
108 1 82.3428 52.6943 95.5647 -0.000131828 0.000175015 0.0011668
109 1 80.8839 55.2919 95.6598 -0.000577722 -0.000364623 -0.000236095
110 1 84.0333 54.8222 94.7964 -0.000163641 0.000983761 7.48698e-05
111 2 82.0914 56.4687 93.6156 -0.000239007 0.000888684 0.000472273
112 1 89.1716 57.1273 95.9067 1.42031e-05 0.000812349 0.000114218
113 5 86.556 56.125 95.7218 -0.000176306 -0.000499913 -0.000970886
114 2 88.9468 54.4065 96.8264 -0.000535922 0.000570252 0.000371236
115 2 86.5478 53.5476 96.3703 3.49069e-05 0.00061766 -0.000170538
116 1 86.6719 54.4098 93.4246 -0.000819832 0.000805953 -0.000298006
117 1 91.0592 52.5841 96.9263 -0.800613 -0.230726 -0.816121
118 1 89.6413 54.6294 94.3336 -0.000434084 0.000130497 -0.000567285
119 2 91.5939 56.8172 95.2314 0.202054 0.028606 0.744778
120 4 92.7177 53.8589 95.1341 -0.380647 0.43398 -0.550816
121 1 85.1976 51.9296 98.1651 -0.562137 1.28044 -0.050463
122 1 88.445 51.7665 97.9452 -0.555044 -0.200671 -0.286741
123 1 80.3112 55.5884 98.405 -0.0502826 0.175364 -0.351017
124 4 86.1805 56.5328 98.7507 4.04123e-05 -0.000223713 -0.000296591
125 4 84.4648 54.9391 97.5578 -0.000534215 0.000251028 -0.000124
126 4 87.5718 56.0314 101.466 -0.369868 -0.00132215 -0.248008
127 4 84.3391 55.3965 100.212 -0.26359 0.084313 0.0294317
128 1 82.4157 53.2719 98.4413 -0.623092 0.105369 -0.335483
129 1 87.6009 54.2321 99.069 -0.861133 -0.648623 0.576289
130 1 90.65 53.9745 99.4792 -1.05987 -0.864465 1.2584
131 2 90.1134 56.2829 101.141 -0.51121 0.0364483 0.600974
132 1 89.2732 56.5726 98.6764 -0.00024496 -0.000307166 -0.000317212
133 2 92.1556 56.5849 100.052 0.478164 0.0437385 -0.928811
134 1 91.5757 55.4736 97.4502 1.23708 0.267445 -1.25322
135 1 75.7292 59.15 83.9665 -0.561598 -0.133272 -0.341155
136 1 75.4571 57.5965 81.31 0.798273 0.0514004 0.485267
137 3 78.2476 60.0774 83.9552 0.000508043 -0.00015106 -0.000252076
138 1 77.0565 60.1615 81.674 -0.0719772 0.395339 -1.32366
139 2 78.5977 58.2496 81.041 0.8571 -0.274324 -0.528866
140 2 78.9893 62.1207 83.0778 0.579056 0.392175 0.337992
141 1 80.7294 59.5328 83.8316 -1.93889e-05 0.000774114 -4.09928e-05
142 3 79.6162 60.8391 81.1718 0.527263 -0.735009 0.270909
143 1 76.1975 62.1256 83.5265 1.99884 1.70387 -0.962216
144 1 77.9084 57.5145 83.439 9.68377e-06 -6.50497e-05 -0.000567153
145 1 81.3037 58.7071 81.0182 0.899989 0.290763 0.529255
146 3 84.2137 59.1296 81.7539 -0.376918 -0.605413 0.780689
147 1 82.6788 61.1805 82.6395 0.656399 -0.610141 -0.0226307
148 2 83.2145 58.4058 84.0624 -0.000263523 0.000570228 4.15564e-05
149 1 85.8645 60.4271 84.306 0.0270577 0.109653 -0.464883
150 3 84.5284 62.8537 84.9406 0.0656713 0.0559369 0.129714
151 1 81.6605 63.0755 84.5007 0.369969 0.0778225 0.252944
152 1 74.4981 61.3256 85.3105 -2.1188 0.0179276 2.33898
153 3 75.5164 60.1918 87.5982 -0.000320937 0.000202499 -0.000122836
154 1 73.7649 58.5079 85.8841 -0.228724 -0.033232 0.650602
155 3 73.4335 59.3537 88.3509 0.0741263 -0.11991 0.897237
156 1 75.8971 57.9481 88.8615 0.000286117 -9.12352e-05 0.000253437
157 3 76.4313 58.1752 86.3085 0.000410166 -2.19275e-05 5.37574e-05
158 1 77.5029 61.7389 89.0014 0.000331482 -7.6744e-05 -0.000301473
159 1 77.3954 61.0134 86.1471 4.51246e-05 -3.14827e-05 0.000126542
160 1 80.3316 61.1585 86.4742 0.000212249 0.000231196 -9.06065e-05
161 2 79.9574 61.3742 89.7762 6.94194e-05 4.19294e-05 0.000320712
162 4 78.9213 58.5257 85.9388 0.000237154 -0.000207858 -0.000816231
163 1 78.8806 59.1114 88.5825 -6.09277e-05 -0.00023609 0.000183922
164 1 82.0943 60.1927 88.7988 -0.000285914 -0.000167175 0.000470293
165 1 83.4026 60.6985 85.935 0.000234317 0.000406821 0.000109406
166 1 85.0137 59.7562 88.5309 0.000585039 0.000746739 0.000547562
167 1 85.7448 58.2808 86.1296 0.000287205 -2.4474e-05 -0.000103092
168 3 85.9578 61.5479 86.8948 7.05689e-05 -0.000132535 0.000274432
169 3 81.6093 58.8886 86.4715 -0.000637989 0.000617034 0.000156806
170 4 89.3081 61.1509 85.5844 -0.357435 -0.348128 0.143867
171 3 87.682 59.9513 87.469 -0.000430563 0.000330771 -0.000502301
172 1 88.6159 58.3684 85.3063 -0.496298 -0.230762 0.63653
173 3 88.4965 57.7166 87.9356 -0.000170797 -0.000346584 -0.000119324
174 1 89.0854 62.2284 88.1415 0.369994 -0.411946 -0.211471
175 1 90.8248 59.5436 88.4179 -0.862027 -0.226018 0.33966
176 3 74.7498 62.5961 87.6551 -0.394442 -0.496259 0.71591
177 2 77.4886 66.014 88.9659 -0.858112 0.618335 0.70061
178 1 76.6845 63.9214 86.8324 -0.920989 0.884524 1.37204
179 5 80.7335 65.7642 85.4385 0.970129 -0.163398 -0.453613
180 2 79.2679 63.1231 87.9537 0.00023326 0.000132819 0.000198109
181 1 79.6262 65.6746 87.8855 1.58475 0.311752 0.413882
182 1 81.7948 63.629 87.4791 -4.91073e-05 -8.8609e-06 0.000333277
183 1 78.8141 63.5552 85.3401 1.48942 0.181058 -1.45473
184 2 84.1903 62.6751 88.1055 0.000235901 -0.000493681 0.000223292
185 1 86.7771 64.2475 87.7185 -0.432693 -0.355238 0.241208
186 2 82.7968 66.5198 88.0225 -0.459195 0.348942 0.466115
187 1 83.8065 65.1098 86.1996 1.23308 -0.994545 -0.252689
188 3 85.653 66.5723 88.4032 -0.126223 -0.826838 -0.740947
189 2 87.1662 62.9021 85.4425 0.234076 -0.0308097 -0.445216
190 1 75.0656 61.3127 90.0458 -1.29211 -0.0079936 0.788887
191 1 77.5415 59.5663 91.2327 -0.000390228 -0.000197563 -0.000332836
192 1 74.5509 58.8749 91.3783 -0.429944 0.209419 0.694228
193 1 76.1603 61.2727 93.2396 0.48507 -0.0630457 -0.0798424
194 3 78.2707 62.1361 91.7354 -0.000132696 0.000433143 -0.000324576
195 1 81.3477 61.4805 92.0421 4.0762e-05 -3.23113e-05 -4.6995e-05
196 1 84.4251 60.3002 93.3585 -9.13716e-05 -0.000129193 -0.000208486
197 5 80.4028 58.94 91.2667 0.000174076 -0.000309706 0.000285456
198 3 86.8033 60.7334 92.0654 0.000287354 -8.79213e-05 0.000526369
199 1 84.1143 61.4987 90.778 0.000171821 3.92994e-05 0.000149048
200 2 85.6405 58.9505 91.0141 1.37881e-06 5.48614e-05 -2.29739e-05
201 4 83.0632 58.5734 91.1524 -0.000942867 2.58158e-05 -0.000550209
202 1 86.8188 61.9445 89.7163 -0.000262023 0.00119176 0.000212012
203 1 91.8349 59.2537 91.7649 -0.274927 0.493585 -0.0824116
204 1 89.7914 57.6245 93.1254 0.000379818 -0.000381462 -0.000383046
205 2 90.6289 61.7518 90.8357 -0.0822036 0.176915 -0.716394
206 1 89.422 60.6402 92.8242 0.000212981 0.000632729 0.000486538
207 1 88.3949 59.4678 90.1366 -0.000346614 9.00679e-05 0.000410055
208 2 76.7979 63.9449 92.9539 0.207303 -0.641154 -0.039629
209 1 76.1717 64.1311 90.029 0.535755 -0.884812 0.746301
210 1 78.1815 65.9615 92.036 -0.311799 -0.686371 0.189644