ITEM: TIMESTEP
576
ITEM: NUMBER OF ATOMS
1985
ITEM: BOX BOUNDS ss ss ss
7.0195722853999996e+01 1.1237641714600001e+02
1.8754678130000002e+01 5.7982021869999997e+01
6.4964500892561603e+01 1.0348958002434384e+02
ITEM: ATOMS id type x y z fx fy fz
107 1 75.4445 26.8078 73.1902 -1.16545 -1.16967 0.697145
132 1 75.2224 29.3477 71.6697 1.15487 0.09803 -2.60788
131 5 71.6118 30.2144 74.4887 -0.97431 -0.629301 0.300664
134 1 74.2043 29.3183 74.0438 -0.409131 -0.188731 1.88851
394 1 74.3393 31.7596 75.794 6.98384e-05 0.000142144 7.78875e-05
347 1 73.906 28.2806 76.618 -1.62602 -0.923322 0.568782
390 1 72.1003 30.466 77.2391 -0.444662 -0.106418 0.201571
398 2 74.8038 30.5627 78.1954 -5.52265e-06 3.64453e-06 7.78889e-05
710 4 72.8859 29.2354 81.8253 0.194628 0.573482 1.36831
711 1 73.5441 28.6253 79.4474 -0.541789 -0.550138 -0.560684
712 4 71.8889 31.3171 79.8708 -0.499738 -0.184521 0.975166
666 1 75.2823 27.1114 82.2844 0.618706 0.605123 0.956691
667 1 75.3679 26.1726 79.6373 -0.329613 -0.205388 2.62342
714 2 74.5072 31.6511 80.26 -9.38843e-05 6.12402e-05 1.45437e-05
1065 4 73.8593 30.281 84.6226 -0.192065 -0.201759 0.583354
23 4 74.4292 36.0718 68.0056 0.366198 -0.3095 -0.349844
136 1 72.9139 32.2351 73.2549 0.343226 -0.88211 -1.13613
172 1 71.8268 37.0667 72.2125 -1.64407 -1.08803 1.40166
174 1 73.606 34.632 72.0446 -2.60783 -0.0116817 0.405301
176 1 73.5362 37.1427 70.3884 0.422402 -1.06453 -1.914
133 1 74.8693 32.2291 71.1694 -0.377683 -0.889043 -0.829985
175 2 75.0017 34.8164 70.2987 1.5878 -0.361015 -3.66285
173 5 70.4896 38.0601 74.1208 -0.838623 0.832182 2.23204
179 3 72.6618 35.1056 74.1882 0.419194 0.690479 -0.148034
177 2 74.5513 36.7962 72.9023 8.95123e-05 0.000121325 -0.000157651
442 1 75.3271 36.678 75.4049 0.000245512 -0.000133216 -0.000215038
389 1 71.6424 33.1918 75.4549 -0.720657 -0.91127 0.569756
391 1 73.2454 33.0035 78.1969 6.88013e-05 7.74571e-05 -0.000135129
435 1 70.6984 34.4937 77.6255 -0.993264 0.121542 2.32616
436 1 72.2553 36.3087 76.2533 1.40687 1.26422 -2.30345
437 3 71.0601 37.4333 77.9437 -1.24963 0.666284 1.18128
438 1 73.41 35.8786 78.82 -0.000162399 0.000208555 0.000177805
439 2 74.1794 34.4347 76.2841 0.000165094 1.42747e-05 -0.000128662
494 1 74.8207 38.2761 77.9724 -4.54754e-05 0.000143839 -1.11556e-05
772 1 75.237 34.3171 80.387 0.00019854 0.000311308 -0.000159788
769 1 70.9555 36.2359 80.1602 -0.342264 -0.730829 1.81639
771 1 71.9966 37.8023 82.9032 -0.120987 -0.188185 0.359477
713 1 73.8727 32.3409 82.6592 -0.0345341 -0.0953372 -0.140559
766 2 72.5652 33.8862 80.5114 -0.265709 -0.318398 -0.567961
767 1 72.2118 34.8053 82.7634 0.245785 0.254035 0.639234
768 3 73.9828 36.4424 81.5435 0.000146812 5.54807e-05 0.000171485
770 2 75.3505 34.5466 82.921 -0.000232091 0.000525325 -0.000290647
1115 3 72.2158 35.8968 85.0523 -0.148863 0.135635 1.09818
1120 2 73.2851 38.1565 86.253 -0.210791 -1.15493 0.876801
1114 1 74.1139 33.6697 85.3171 -0.749306 0.161326 0.0587224
1117 1 74.6156 35.6392 87.5166 -0.436026 0.437278 -0.309413
1118 1 74.4973 36.7123 84.2331 0.000197299 0.000367548 0.000271193
48 4 71.9606 39.5491 69.2714 -0.378852 -0.457188 -0.837045
50 4 73.7128 41.527 67.8048 -0.264277 0.311887 -0.885009
49 1 74.809 38.8895 68.8939 0.360088 1.07505 -0.0508836
80 1 75.1877 43.697 69.532 -0.198646 0.441977 0.00759125
216 1 72.8803 42.625 72.7047 -0.410006 0.250264 -0.502896
217 5 71.6886 39.9821 71.807 0.0279469 -0.83293 -0.419758
258 4 72.326 43.353 69.9319 -0.707802 0.449516 -0.181162
221 1 73.3504 38.7945 74.2593 -8.7151e-05 4.01571e-05 6.89796e-05
218 2 74.351 39.1403 71.8152 0.000101869 9.04339e-05 5.40642e-05
219 1 73.8911 41.2064 70.4529 -3.71947e-05 2.15329e-05 8.84181e-05
215 1 71.1409 41.0096 74.1406 -0.50462 -0.0101201 2.51391
220 4 75.028 44.042 71.9936 -7.39249e-05 0.000188363 -0.000168936
488 1 72.3149 39.371 76.9239 -0.816411 0.33394 -0.861115
489 1 72.1123 42.4357 76.7858 0.181635 -1.12713 -1.29505
491 1 71.81 41.2728 79.195 -0.862076 -0.0932629 1.1834
532 2 72.714 43.9338 74.9601 0.526371 0.593646 0.149745
534 5 70.8469 44.0385 78.4363 -1.4306 0.377988 1.98121
490 2 74.314 40.8781 77.5961 -1.90749e-05 -8.86794e-05 -0.000473808
493 5 74.1436 41.529 74.9735 3.008e-05 0.000172662 -0.000110346
537 1 75.1402 43.2956 77.156 -0.000250003 6.3398e-05 -0.000164552
873 2 73.5857 43.5138 79.1652 0.000173216 0.000534507 -7.80125e-05
821 1 74.514 41.2864 80.1712 0.000132291 -0.000226541 -4.3921e-05
874 1 75.3229 44.2064 81.7999 -0.000414141 0.000363679 -0.000215334
823 4 74.6157 39.2345 82.3092 0.000169545 0.000222603 -0.000194557
818 4 70.2003 39.0295 79.8131 -0.522651 0.158111 0.248734
819 1 72.9989 38.5414 80.0885 0.000129887 -8.7474e-05 -8.71457e-05
820 1 72.1738 40.6481 82.0708 -0.662573 0.690687 1.09387
875 1 72.2235 43.608 81.353 0.167264 -0.386875 1.17733
822 2 74.4918 41.897 82.8758 -0.000197681 0.000211269 -6.92351e-05
1175 1 72.7552 42.8891 84.6538 0.487535 -0.533402 0.0545217
1171 1 74.1851 40.0678 84.9508 0.199141 0.97335 -0.682783
1172 1 74.5236 41.7206 87.3285 -0.63465 0.293459 0.508024
1224 1 74.7603 44.8587 87.1188 -0.854065 -1.06102 -0.255067
1508 3 75.391 40.5967 89.7779 -0.095101 0.7973 0.911381
259 2 73.2514 45.8356 70.5627 -0.66359 -0.347059 -0.251753
262 1 73.2261 45.644 73.1885 -0.254087 0.670861 0.736458
261 1 74.6919 47.9439 72.234 -1.0173 0.604723 -0.243392
538 1 73.6583 48.1148 74.8159 -1.67305 -0.550249 1.65958
539 1 74.2762 47.8294 77.6951 -0.233275 0.550336 0.380381
541 3 74.5278 45.7843 76.0605 2.27721 0.721337 -2.10926
583 2 74.6051 50.6013 76.2418 -0.199594 0.0110956 0.964945
533 5 72.8027 45.2488 77.3237 -1.5627 0.287363 0.449468
876 1 72.9371 46.0692 79.9845 -0.954639 1.0798 1.27521
877 3 74.7028 46.9647 82.2583 0.450875 0.657961 -1.09894
926 3 74.805 48.3287 80.2638 -0.0709863 -0.3122 0.484778
878 1 73.8257 45.4726 83.9256 -0.826398 -0.750865 1.74204
108 3 77.564 25.184 72.8532 0.289484 -0.0432628 -0.661681
111 1 80.3042 23.9642 74.1471 -0.661309 -1.06154 -1.45699
328 1 80.2714 22.9583 79.2206 0.801255 -0.0527032 0.371665
346 1 77.1322 24.9875 75.3077 3.0412 -1.34455 -2.69178
350 2 78.4974 25.1478 78.0753 -2.92179 2.27556 -0.0731728
354 1 80.2152 24.4049 76.8072 2.29778 -0.982782 -1.30977
639 2 79.4775 21.9599 81.4109 -0.0306659 -0.540477 0.618744
671 1 79.4552 23.842 83.2245 0.0374813 -1.91004 0.270622
668 1 77.8824 24.2003 80.1786 0.82837 -0.557069 -0.0994949
673 5 76.3312 24.3387 82.1024 -1.12664 0.665865 2.43305
992 2 80.2686 23.4508 86.2951 0.157346 0.0888978 0.368484
1022 4 78.7536 25.115 87.3561 -0.480745 0.322921 0.654039
8 2 78.3268 30.2157 68.4756 1.55616 -0.196278 -1.88533
1 1 80.3283 27.9578 69.7131 1.01361 -0.38589 -0.738145
7 3 76.768 31.3167 69.689 -0.870213 0.403923 0.46363
139 1 77.9163 31.0637 72.2037 0.000167733 0.00012712 4.47042e-05
141 3 80.0464 28.8406 73.4409 -0.000307413 -1.9075e-05 -0.000161586
109 3 77.5403 27.7613 72.5568 1.15221 -0.304667 1.33735
110 1 79.7382 26.4182 72.1156 -0.0992811 -0.259239 -0.418995
137 1 77.8071 28.7317 70.4423 -0.472966 0.284012 -0.908044
138 1 80.6526 30.3896 71.528 -2.26276e-05 -4.05984e-05 1.44951e-05
392 1 77.7149 29.2065 74.5657 -0.000158378 4.80579e-05 1.07755e-05
135 2 75.7506 31.3845 73.5337 -0.000293447 -3.92407e-05 6.89862e-05
402 1 80.0065 31.5483 74.4732 -0.000105912 0.000193976 0.000233934
348 3 75.9967 27.4364 75.653 1.43263 0.751557 -1.29931
349 3 75.9918 28.293 78.2602 5.79186e-05 6.94914e-06 0.000116367
400 3 80.1946 29.1689 75.8967 6.05039e-05 -2.58517e-05 -0.00022077
351 1 78.2389 27.6845 77.1749 3.8955e-05 0.000178827 4.09776e-05
352 1 75.673 25.5586 77.1851 -2.45272 -0.379121 1.65743
353 1 79.5029 26.6825 74.873 -0.000158777 0.000174647 -8.32435e-05
393 2 76.0147 29.8054 76.3261 -9.58222e-05 9.95571e-05 -2.47248e-06
396 1 77.8149 30.4068 78.2395 -2.47146e-05 -0.000204263 0.000121778
399 2 80.3578 31.2386 77.1053 -0.000105051 -0.000414045 0.000440501
724 1 80.5041 29.2713 79.0226 5.64361e-05 -0.00014432 0.00043429
359 2 80.2732 25.9372 79.6078 0.000176922 -6.11045e-05 0.000147196
722 1 78.2383 28.4025 83.0989 0.000324044 -0.000195535 0.000144632
723 3 79.0089 31.091 82.9449 -1.23155e-05 9.70341e-05 0.000151098
717 2 78.7174 29.9392 80.8891 -0.000195275 -0.00011437 7.81172e-05
716 1 76.028 29.4959 80.6401 -0.000195362 -2.99214e-05 9.26433e-05
715 1 76.2339 30.5479 83.3337 7.30929e-05 -2.66403e-05 6.20581e-05
669 2 78.8902 25.9961 81.9805 0.000332553 6.77305e-05 -7.93848e-05
670 1 78.0369 27.4247 80.0294 -0.000114737 -9.00928e-06 0.000214585
1020 1 76.1181 28.0565 85.0725 0.259142 -0.0875678 0.708307
1021 3 77.2196 27.4628 87.9192 0.297606 0.313132 -0.116548
1023 1 78.3581 25.8596 84.6685 -1.14316 0.5336 0.868357
1026 1 79.3106 28.1544 86.4179 0.000239033 -0.000133008 8.28795e-05
1067 1 76.5393 30.101 87.21 -0.103495 -0.571216 0.212667
1069 3 78.2482 30.3485 85.16 0.000243016 -0.000219751 0.000216626
1071 1 79.1706 31.3155 87.5159 0.000102384 0.000238972 -0.000330703
1410 3 79.3079 29.1085 88.9296 0.000129447 3.13165e-05 0.000120509
1027 3 80.6627 26.9735 84.256 0.000106268 -6.75827e-05 0.0003851
1370 1 79.9915 26.717 89.7297 -0.396515 -1.09785 0.4159
1411 1 80.2268 28.9839 91.69 0.700268 -0.996848 -0.80329
1407 4 77.1317 29.7236 90.026 0.212195 -0.0152249 -0.0528546
1408 4 78.9252 31.1043 92.7117 -0.122937 0.424859 0.41481
9 3 78.5895 33.0285 67.1912 0.851826 -1.11632 -0.659656
24 5 78.4738 35.6346 66.3856 2.15556 1.5824 -3.18536
25 1 77.4125 34.7897 68.3733 -2.7536 -0.201639 4.53424
26 2 76.5994 37.6213 67.6179 -0.591254 -1.40799 0.615097
27 1 78.8683 37.4627 69.2139 -1.57144e-05 -1.55185e-05 1.16576e-05
140 1 79.2138 32.3454 69.7492 -1.00672e-06 4.15179e-06 -0.000315653
30 3 80.5459 36.8851 67.4398 -0.000248406 2.47825e-05 4.0797e-05
29 1 80.5081 34.7402 69.0216 -2.05606e-05 -6.8135e-05 -7.5841e-05
184 1 78.9367 37.6442 72.2538 -1.84747e-05 4.51582e-05 -6.35659e-05
185 3 76.8804 35.872 72.9292 0.00015164 0.000214371 0.000213254
183 1 76.4568 36.8116 70.5863 -8.36998e-06 0.000196528 -3.44289e-06
182 3 78.9586 35.3208 71.0443 0.000124336 7.05401e-05 0.000120894
186 3 80.1871 35.5775 73.1891 0.000164203 0.000129129 0.000178974
180 1 78.3563 33.7962 73.5054 -0.000173212 0.00011526 -0.000153842
181 5 77.0994 33.738 71.0967 -0.000123956 9.04673e-05 7.10282e-05
440 1 75.4827 33.9847 74.0571 -0.000267324 2.30287e-05 0.000220254
444 1 77.5606 37.8018 77.4245 -0.000283378 -0.000147353 -6.20234e-05
395 1 77.3542 31.933 75.5551 -9.5317e-05 4.99671e-05 -3.53255e-05
397 1 76.1885 32.8576 78.0618 -2.86063e-05 -9.68964e-05 -0.000158521
441 1 78.1772 34.9258 78.9049 -6.75169e-05 -1.3914e-05 -1.16233e-05
443 2 77.2819 34.6156 76.1145 -8.04056e-05 0.000177601 5.42717e-05
445 2 75.8216 35.5857 77.8197 4.78623e-05 2.75674e-05 -1.15806e-05
452 2 78.8944 33.0414 77.2807 -0.000121882 -8.85587e-05 8.20697e-05
448 1 80.2798 34.4422 75.6036 1.9379e-05 -4.25624e-05 0.000157528
187 1 78.4342 36.6602 74.9598 -1.57421e-05 5.37572e-05 -0.000105698
450 1 80.3655 36.7994 77.6075 0.000156702 -0.000240224 -4.41205e-05
721 4 77.8377 32.9981 83.888 0.000307612 0.000223625 -0.000436203
778 2 80.3295 35.4304 80.625 4.40803e-05 0.000108907 -8.11313e-05
777 2 79.7945 37.3486 82.4938 0.000119355 0.000415448 -0.000201124
776 1 78.484 37.4725 80.1477 -8.63213e-05 -0.000120511 0.000135653
730 1 79.5817 32.3292 79.7422 6.91742e-05 -3.10515e-05 5.61741e-05
775 1 76.6803 37.5916 82.4381 -0.000389135 -0.000129081 -0.000223201
774 1 77.9262 35.0568 81.9428 7.61882e-05 -0.000199609 9.12459e-06
446 2 75.8826 36.8241 79.9796 -0.000138943 0.000137923 4.23092e-05
719 1 77.0974 32.2592 81.1292 -5.33998e-05 9.27565e-05 0.000133655
720 2 80.0259 33.3085 82.1254 0.000141083 0.000220032 -9.88203e-05
773 1 80.1798 35.0428 84.0687 0.00079064 3.91513e-05 -0.000282998
1068 1 76.7714 33.1304 87.8154 0.293474 -0.813535 -1.9297
1116 4 76.57 34.8635 85.0205 -0.000125974 -5.16837e-05 0.000580538
1119 1 77.3544 35.9933 87.3587 -0.00218483 -0.00244545 -0.00206994
1121 3 78.6845 33.9485 86.1071 2.71031e-05 0.000302573 -0.000283638
1122 2 79.8927 36.3248 86.9726 0.000811756 0.000602291 -0.000396048
1123 1 78.2741 37.0768 84.7403 0.000249618 -0.000576472 -0.000181872
1073 1 80.5027 32.2074 85.0979 -3.64466e-05 0.000118158 7.04913e-06
1066 3 76.1812 32.0398 85.4806 0.000338029 0.000178884 5.50115e-05
1180 1 78.7372 37.7753 89.0269 0.00323239 0.00494601 0.00480083
1174 2 76.0942 38.1414 85.6985 0.000436347 0.000188387 2.60941e-05
1124 1 80.5107 33.9495 87.9069 -0.000442652 0.00036481 -0.000533595
1459 3 76.4198 36.531 89.7864 -0.363765 0.13083 0.226131
1457 2 76.2049 33.8818 89.9838 -0.875132 0.847539 2.09754
1458 4 79.845 33.7715 92.8948 -0.457942 0.0497734 -0.252176
1461 3 79.4638 37.3666 91.5269 -0.00105495 0.000998475 -0.00205167
1460 4 77.4891 35.7236 92.2205 0.00888353 0.295872 0.446144
1409 5 78.6608 32.066 90.2135 2.6422e-05 0.000106673 -7.81429e-06
1456 1 78.6884 34.903 89.9677 -4.38023e-05 -0.000252969 0.000660346
1730 2 79.5779 38.1306 94.3584 -0.279524 0.117492 0.0028265
51 1 78.4847 38.682 66.5135 0.594456 0.226078 -0.478157
52 1 76.3966 40.5321 67.3849 0.554083 0.887509 -1.22271
53 1 78.2671 42.79 66.7643 0.0145664 0.685296 0.658307
54 1 78.9446 40.6457 68.9122 -0.000197678 -3.49656e-05 4.01144e-05
81 3 75.8016 43.3492 67.2837 0.464592 -0.208151 -1.57832
86 2 79.7656 43.743 68.7891 0.000102654 -4.12089e-05 -2.32809e-06
58 2 79.8361 40.9001 66.0944 0.951154 0.114383 0.130164
55 1 78.024 43.0438 70.4333 -0.00018245 -1.54612e-05 4.36833e-05
56 3 77.1013 39.2438 70.5112 -6.3782e-05 0.00026382 0.000150492
265 1 80.5542 43.6255 72.3893 -0.000160849 0.000299278 -0.000218438
225 1 75.8671 41.3558 72.6383 -4.55534e-05 0.00013167 -0.000258627
224 1 78.7524 40.6405 72.0203 0.000180778 -2.05039e-05 5.36924e-06
223 2 77.9371 42.9638 73.0894 0.000135159 0.000328868 5.97939e-05
222 3 76.3414 41.2891 69.8309 -0.000252812 -0.000101648 -9.96269e-05
228 4 80.0075 41.6026 74.4162 -2.97429e-05 -0.000183049 -0.000458626
230 2 80.4629 38.9665 70.6251 0.000196278 -0.000149193 -8.87094e-06
535 1 75.7607 44.0566 74.5074 0.000420856 0.000186316 -4.9222e-05
178 1 76.4438 38.5658 73.1766 5.70586e-05 0.000207918 -0.000164289
227 4 78.4905 39.5048 74.7753 3.92962e-05 0.000165097 0.00024788
495 5 77.3076 41.8667 75.4114 -0.000298728 -8.13921e-05 -0.000334089
496 1 76.9715 40.7836 78.1945 -5.11711e-05 7.74726e-05 -0.000184758
492 5 75.841 39.5761 75.7245 9.0821e-05 -2.32966e-05 -6.35178e-07
536 2 77.7953 43.2652 77.5078 -0.000173576 9.17553e-05 -0.000433887
546 1 80.0197 44.509 77.8244 -0.000110315 -0.000566605 -0.00027823
500 4 79.5232 39.6605 78.7811 1.08553e-06 -0.000189962 -0.000117352
498 4 79.9911 41.6723 77.1045 -0.000704646 -0.000714394 -0.00023853
545 1 78.8242 44.588 74.9043 0.000486955 0.000197808 -9.43732e-05
497 4 80.3985 39.1717 76.2335 0.000318639 -0.00047497 -0.000256854
824 1 77.074 40.0876 84.0204 -2.98088e-05 0.000322966 -0.000451907
825 2 76.3383 39.2311 80.2324 2.66598e-05 0.000476574 0.00021216
830 1 79.6193 41.7557 82.7745 -0.000358976 0.000223781 -0.000388018
829 2 79.6285 39.3806 83.8793 -0.000556856 0.000185605 0.000122216
882 2 77.9219 43.8025 82.8244 -0.000136831 8.30397e-05 -0.000486398
828 3 78.7216 39.6106 81.5361 -0.000445284 0.000245902 -0.000245186
827 1 76.9158 41.5837 81.6298 -0.000148341 0.000336982 -0.000305956
826 3 76.4246 43.1045 79.5363 -0.00014878 0.000347419 -0.000746164
502 1 79.1303 42.317 79.8775 -5.85123e-05 -0.000167038 -0.000341638
887 3 80.6474 44.233 81.3236 6.73086e-06 0.000159584 -0.000859463
1170 1 75.9567 38.7777 88.1517 -0.280279 -0.950586 0.383536
1173 3 76.696 40.6505 86.5193 -7.5341e-05 -9.47846e-05 -0.000660562
1234 1 79.2493 43.891 88.0913 0.000250596 0.000616445 -0.000443472
1176 3 76.8942 42.8997 87.4214 0.000475565 -0.000353432 0.000244077
1177 1 78.762 42.1155 85.6469 -5.29469e-06 -0.000225242 -0.000191763
1179 1 78.9728 39.2689 86.5907 4.30719e-06 0.000149903 -0.000760144
1228 2 78.8385 44.801 85.4115 0.000378224 -2.12301e-05 -0.000848907
1225 1 75.9746 43.0474 84.8506 7.42411e-06 2.75265e-05 7.50921e-05
1510 5 77.0125 41.7949 92.0545 0.366692 -0.299013 -0.476847
1512 2 79.3795 40.5358 92.7486 -0.975354 -0.312815 0.335065
1513 3 79.8114 39.5845 90.3668 -0.00398111 -0.00811046 -0.00300825
1509 1 77.9309 41.0835 89.1687 -0.000321493 -0.000419945 -0.000391517
1560 2 77.0632 44.5566 92.163 0.242871 0.0391801 0.0287231
1559 2 78.6441 43.3596 90.7041 -6.83245e-05 -5.65161e-05 -0.00065216
1558 1 75.7884 43.3887 89.7298 0.569676 -0.100361 0.0283832
1511 1 79.7803 43.1898 93.7405 -0.000208035 -0.206977 -0.586635
1507 1 77.3798 38.7904 91.3654 -0.772434 0.992295 0.0682068
1774 5 80.5317 40.8216 95.4885 -0.326346 -0.134883 0.845557
83 5 79.0409 45.7224 66.8454 2.5252 0.692975 -4.58698
84 5 79.5214 47.9968 68.4913 -0.830955 -0.0716416 -1.45612
82 1 77.5956 45.5629 68.6767 -1.47491 -1.69563 2.53998
257 1 75.6238 46.6588 70.0107 -0.62753 1.32938 -0.552842
303 1 80.4657 49.0264 71.9114 0.000280231 6.04372e-05 -2.5747e-05
266 2 78.3982 47.6133 70.4955 -0.627888 -1.25191 1.33389
267 4 78.9449 47.0758 73.0017 -0.000347328 0.000327882 -0.000127769
542 1 76.3711 46.9679 74.3677 5.28149e-05 0.000283844 -0.000211329
297 1 78.7864 50.2338 69.9064 2.01878 2.04824 -2.54699
299 1 76.8956 49.4007 71.4032 -2.18357 -0.230582 1.80907
264 4 79.8031 45.5332 70.614 -1.33786e-05 4.88599e-05 -0.000309895
295 3 75.4739 49.6836 74.2772 1.53314 0.228111 -0.851237
301 1 78.2095 49.422 74.1044 -0.000142596 -0.000151187 -3.37691e-05
260 1 77.2948 45.3789 72.0088 7.04721e-05 9.59815e-05 6.48716e-05
547 5 79.2576 47.0776 78.2936 0.000171052 -0.000153802 -0.000482144
540 1 77.079 45.7422 76.9974 0.000122731 3.21319e-05 -6.43276e-06
544 2 78.8747 47.1556 75.5849 -0.000244459 0.000266635 -0.000458621
582 1 76.8258 48.7916 76.6947 0.000107898 5.76132e-05 0.000123176
586 1 75.9821 50.3179 79.0789 0.466133 0.225099 0.0458722
590 1 80.3038 51.4005 75.2005 -7.42853e-05 -9.19588e-05 -6.74914e-05
588 5 79.6445 49.2315 76.8224 0.000127472 6.08633e-06 3.23217e-05
879 1 75.5094 45.5583 79.2889 -5.55631e-05 0.000434215 -5.4671e-05
883 3 76.8701 47.7025 79.0275 0.000351519 0.00014936 0.000213423
880 1 78.2482 45.0646 80.2923 -1.46513e-05 -3.04491e-06 -0.000106284
885 1 80.0997 47.4431 80.9211 -0.000116835 -0.000377084 -0.000270863
543 2 78.6214 49.2856 79.5747 0.000769893 8.53281e-05 -0.000519675
886 4 79.5373 45.8585 83.1073 0.000309283 -0.000332512 -0.000487891
929 1 76.706 50.315 82.0703 -0.885482 -0.387269 0.207984
928 1 79.5667 50.2121 81.8955 9.80344e-05 -0.000652372 -0.000398481
1229 1 76.761 45.8866 84.1106 -2.89735e-05 0.000180021 -2.87539e-06
927 2 75.8855 48.7291 84.0103 -0.436269 -0.264167 -0.0674331
884 1 77.1825 47.5036 81.5974 0.000301579 -4.64351e-05 9.40281e-05
1278 1 78.5764 48.4665 84.2144 0.000187883 -0.000338872 0.000307984
1227 1 75.8169 47.4049 86.3053 0.276234 0.755119 0.842372
1231 2 78.518 47.099 86.4704 0.000170271 -0.000489681 0.000424671
1276 2 78.2469 48.2725 88.6139 -0.60939 0.508905 0.425461
1277 1 77.5592 50.0133 86.5288 -0.0498708 -0.989792 0.783384
1235 4 80.2507 46.7079 88.4386 0.000829042 0.00087484 0.00053544
1279 1 80.3682 49.195 87.14 0.000118484 0.000243742 -0.000490009
1226 3 77.211 45.2164 87.0445 -0.000259878 -0.000701537 -0.000885379
931 1 80.6435 50.6808 84.6324 0.000114915 0.000271325 -0.000361702
1562 1 79.5329 45.9198 92.5796 0.00468661 -1.14672 0.837493
1567 4 80.4872 47.7911 90.9736 -0.467547 1.00075 -0.0824047
1608 3 80.4853 50.2267 89.6863 0.256728 -0.268149 -0.338854
1561 1 77.6384 45.7883 89.6228 -0.0844445 -0.0239217 0.30728
300 1 79.2866 51.6468 72.4105 -1.19033 1.07235 1.01709
296 4 76.6843 51.6698 73.0899 -1.10439 0.895453 -0.0154076
325 3 79.3008 53.8008 74.1912 0.121642 -0.519207 0.362592
584 4 76.2669 52.862 77.8073 -0.32111 0.843312 1.00134
619 2 78.9804 53.6416 76.8493 -0.0357392 -0.0987282 -0.559635
585 1 77.258 51.5207 75.8713 0.599549 0.354966 -0.779761
587 5 78.7119 51.4489 78.334 0.000100911 -5.65514e-05 -6.13754e-05
930 2 77.9648 52.0966 80.8121 0.107882 0.153638 -0.0985662
967 1 79.0192 53.9899 79.517 -1.93469 0.1202 0.746605
968 4 79.3338 53.9744 82.5402 -0.538901 -0.179972 -0.00198378
1321 5 80.3327 53.5679 85.3444 0.435872 0.458021 -0.999055
1280 2 78.1763 51.6763 84.7857 0.231752 0.784114 -1.45792
1282 1 80.0215 52.1316 87.5612 0.0235589 -1.05928 0.746153
115 4 84.8307 24.0573 71.8917 0.197606 -0.418803 0.0431124
116 1 82.7603 25.1262 73.5188 0.321752 -0.793213 0.461927
112 2 85.5527 24.263 74.5831 -1.10739 0.454316 -0.0198413
329 1 81.9576 22.0105 77.015 -1.91957 -1.65277 3.02759
330 5 84.1938 20.2186 78.796 0.775524 -0.881425 -0.614304
331 1 83.5537 22.7206 75.2932 3.14725 1.0009 -2.67622
332 3 84.8641 22.4964 77.9386 -1.27172 -0.299425 0.522928
355 2 82.7706 25.1645 76.1585 8.12225e-05 -6.63348e-05 5.52225e-05
356 1 83.0199 24.3528 78.7416 8.2549e-05 -2.09858e-05 -6.88494e-05
360 1 85.4995 24.8079 77.0889 0.000376596 2.78739e-05 0.000314655
675 3 84.2177 24.9497 81.1932 0.00011708 0.000482295 -6.72025e-05
640 1 82.3535 21.8927 82.1366 -0.316865 -0.425351 -0.232329
641 2 82.8669 21.9024 79.8087 -1.11703 0.927562 -1.66174
642 1 85.9263 22.7463 83.6216 8.03395e-05 -0.000216654 -0.000170849
643 4 84.6598 20.1688 81.8273 0.470258 -0.529413 -1.03215
646 1 85.2484 22.5868 80.6394 -0.000182617 0.00040661 -6.93397e-05
674 1 81.5674 24.6607 81.5209 -5.06791e-05 6.16881e-06 -0.000215095
679 2 83.5369 23.7526 83.4532 -0.000119881 -0.000165071 -0.000286344
991 2 82.4356 21.4297 88.6258 -0.279019 0.411371 1.79222
993 1 81.6585 21.8982 84.6826 -0.268545 -0.0954442 1.53962
994 1 84.085 20.0383 84.3514 1.34163 0.583117 -1.84156
997 1 83.1883 20.0589 86.7167 -0.161851 -0.33589 1.87398
998 3 85.2067 21.7944 86.0633 -4.15946e-05 -6.42531e-05 -0.000345943
1000 1 83.1469 23.2035 86.9139 0.000356848 5.15398e-05 0.000219595
996 1 85.6786 20.954 88.8471 -0.161611 0.891778 0.427191
1024 2 81.5314 24.7723 84.563 -2.4826e-05 -0.000240466 8.40394e-05
1374 3 84.539 24.62 88.701 0.000202241 0.000339716 0.000225061
1347 1 84.709 22.8042 90.6337 -0.419698 0.0691879 -0.0183421
1367 1 81.722 24.035 89.4622 0.425519 0.264285 0.023193
1368 2 83.481 24.3411 92.1683 -0.227571 0.778541 0.617997
2 1 83.2329 27.4168 69.202 0.428877 1.1938 -0.461721
10 3 80.9633 30.3521 69.0311 -0.34173 -0.318391 -0.179811
11 1 83.4682 30.2683 68.4509 -1.73442 0.199788 2.38826
13 3 84.31 29.8351 66.3973 1.68088 -1.02385 -2.91518
3 1 85.7646 28.0728 68.2405 0.575829 0.522702 -0.640011
17 2 85.7882 30.6699 69.4584 0.000297794 0.000198869 -0.000170295
144 1 83.5681 29.8977 71.2248 -0.000165395 -0.000194822 3.11814e-05
113 1 82.1029 25.5922 70.7589 -0.32418 -2.01182 0.187286
114 3 81.8551 28.0223 72.0266 -3.06016e-05 -9.57135e-05 0.000133677
151 2 85.8048 28.6919 70.8192 0.000182467 -0.000132414 -4.77911e-05
117 1 84.2905 27.1321 72.2575 0.000106148 0.000153574 0.000371591
143 1 82.5065 30.4341 73.9357 -0.000176954 -0.00026082 0.00025954
147 2 84.9253 29.3461 73.607 -0.000213254 -0.000344009 7.18941e-05
409 3 84.5765 31.4708 77.825 -7.23938e-05 0.00024101 0.000101669
357 1 81.2057 27.0414 77.3834 0.00012324 0.000296457 -0.000273953
361 1 84.1694 27.2906 77.2607 7.35878e-05 -9.05284e-05 -8.96996e-05
362 4 85.4715 26.9431 74.7976 0.000222122 -0.000332435 -0.000254592
401 1 82.7335 29.7525 76.8937 -0.000357492 -4.67794e-05 0.000213296
404 2 85.4183 29.4899 76.2886 -0.00020817 0.000188116 -0.000223925
405 2 84.8117 31.4325 74.9146 -0.000509593 0.000337793 -0.000354429
358 1 82.4055 27.699 74.6931 -9.10908e-05 4.87148e-05 2.65468e-06
408 1 85.4254 29.2483 79.0577 -0.000456198 0.000277762 -0.000143442
726 5 82.2274 31.6911 78.8912 -0.000225112 0.000136852 0.000230056
682 3 84.869 27.8318 81.4469 2.97172e-05 4.72634e-05 -9.03543e-05
677 1 82.8871 26.9989 79.9172 -9.80792e-05 0.000349177 -0.000357732
728 1 81.3267 30.9596 81.6871 -0.000108032 -0.000135835 2.18959e-05
727 4 83.3976 29.4443 82.7946 0.000218784 -2.40714e-05 0.00015638
683 5 85.8056 26.3161 79.505 0.000103784 8.20012e-05 -1.88697e-05
678 4 85.4899 25.885 83.3012 -0.000102683 -0.000341297 -0.000127659
725 2 83.0747 29.5839 80.1209 -5.62523e-05 0.000207221 0.000394873
676 4 82.9892 26.6739 82.9925 0.000209441 0.000116868 4.54039e-05
672 1 80.7737 27.9363 81.6958 0.000141931 -0.000107243 0.00027089
718 5 80.7423 29.5543 84.2216 0.000176503 -0.000146547 0.000285814
1025 1 81.4815 25.9813 87.1698 -3.08809e-05 -0.000427649 0.000131316
1030 2 84.1199 26.8212 87.6665 0.000193566 -4.64159e-05 -3.93012e-05
1031 1 83.9557 25.4099 85.4541 0.000345598 0.000235026 0.000220324
1075 1 82.8643 28.0846 85.5754 0.000126498 0.000242071 0.00011807
1077 1 83.313 30.9729 85.2063 0.000153881 -7.23154e-05 -0.000123251
1078 2 83.9021 29.6252 87.5439 -0.000128445 0.000285332 0.000490794
1070 3 81.304 29.8745 86.9034 -8.46124e-05 -0.000257422 0.000435003
680 1 85.7609 28.6635 84.3683 -8.35471e-05 -0.000332275 0.000163607
1080 5 85.609 31.5037 88.2352 0.000115882 5.13755e-05 7.39135e-05
1412 2 83.5071 28.4797 91.9117 -0.000161062 -7.3751e-05 -0.00024231
1074 1 82.0748 28.436 89.0462 0.000376378 -1.57135e-05 0.000175402
1375 1 85.004 28.0389 89.8219 0.000129344 3.00378e-06 -0.000106824
1413 3 80.9299 30.8027 89.7182 0.000190943 -0.00012273 -1.79382e-05
1371 2 83.1792 26.1323 90.1629 0.000279526 -0.000253319 0.000307007
1372 1 85.906 25.6451 91.3745 0.000100986 -0.000206956 -0.000171129
1414 1 81.9752 31.044 92.6254 -0.000148736 0.000295631 -0.000141592
1415 1 83.6356 30.6621 90.3199 -8.47174e-05 -1.86837e-05 -0.000315854
1689 1 85.1194 29.9931 93.6243 8.13388e-05 0.000102331 -0.000242915
1369 1 81.9816 26.4738 92.5517 -0.170268 0.778521 -0.598845
1693 1 84.3277 31.07 96.2796 -0.292221 -0.173668 -0.227979
1691 4 81.2406 31.6977 95.1323 0.103644 -0.124958 0.691844
1692 2 82.5243 28.9261 94.1778 0.0859999 -0.202697 0.424713
1662 1 85.05 27.117 94.0688 -0.106455 -0.807284 -0.256328
12 1 81.1159 32.1646 67.3083 0.560259 -0.0424106 -0.121632
14 1 84.3224 32.4499 66.9795 0.74571 1.03376 -0.37667
28 2 83.0979 34.0777 68.6871 0.000136737 7.61093e-05 -8.91445e-06
31 1 81.7863 34.8223 66.4408 -0.0732577 -0.723332 -0.589139
32 1 82.9269 36.7315 68.6073 0.000146902 8.44292e-05 -3.19453e-06
33 4 82.9813 36.7337 65.1845 0.844647 0.282442 -0.484546
34 1 85.233 35.3785 67.3542 -1.03545 -0.62992 0.125734
35 4 85.7305 37.7225 65.6178 0.7107 -0.37788 -1.01627
146 1 85.3495 33.2382 69.856 0.000134727 -0.000100736 -1.67462e-05
193 1 83.4729 37.462 73.3395 9.89487e-05 -7.695e-05 -1.4267e-05
191 5 85.2434 35.1094 72.8282 2.40637e-06 8.77488e-05 0.000144327
145 2 82.4609 32.214 70.0472 -5.2132e-05 3.0279e-06 0.000153741
148 1 84.1014 32.4643 72.4558 -0.000225514 4.99227e-05 6.97149e-05
190 1 81.5025 36.5044 71.1927 0.000270826 0.00017416 0.00014255
454 1 82.6188 34.711 73.8292 -4.24652e-05 -3.06981e-05 -0.000212078
188 3 83.2881 34.6468 71.0501 0.000119979 -0.000236924 0.000171793
189 1 85.3247 36.4119 70.3888 -0.000171643 -0.000188895 3.66327e-05
142 1 80.9364 33.3486 71.9145 -3.45456e-06 -0.000150233 0.00021306
403 1 82.6562 32.611 76.077 -0.000272429 -0.000163219 0.000175273
456 2 84.8158 33.966 75.2045 7.4917e-05 0.000134579 6.81263e-05
461 5 85.051 37.8602 78.0144 0.000181924 0.00070158 -0.000201821
449 2 82.895 35.4531 76.3981 -0.000445788 0.000312269 4.16377e-05
451 4 82.8985 37.9061 76.3767 0.000202814 0.000107694 -0.000376622
453 1 81.2968 34.1869 78.2796 -6.24957e-05 9.3306e-05 0.000341155
455 5 82.9312 36.3519 79.0911 0.000199327 -2.13026e-05 -0.00057954
457 1 85.375 36.5151 75.447 -0.000207196 7.86452e-05 0.00021038
460 1 84.6312 34.1696 78.1321 0.000758844 0.000505041 -0.000315113
447 3 81.1515 37.0222 74.7783 0.000188088 -0.000353102 -5.84748e-05
780 4 81.1706 38.0627 80.2721 2.23864e-05 -0.000122848 -0.000565731
779 1 82.3268 36.2856 82.3481 4.67752e-05 0.000287877 -0.000613635
1076 1 82.5827 33.2039 83.1964 -0.000110518 -0.000267559 1.7447e-05
732 4 85.2606 32.2828 83.6609 -5.75954e-05 0.000115083 -0.000111034
731 2 82.2018 33.8529 80.6801 0.000526332 0.000482946 -2.38882e-05
782 1 84.6537 35.0391 81.0094 0.000399537 0.000352754 -0.000330531
781 1 85.3779 37.8399 82.6737 -1.67833e-05 -6.00116e-05 -5.10818e-05
1131 1 84.6381 35.1678 83.9595 -0.000409586 -0.00015153 -0.000169819
729 1 84.1962 32.0617 80.7473 -4.69289e-05 0.000181506 -8.1187e-05
1133 2 83.3997 34.5658 88.6037 0.00013936 9.57285e-05 -5.60536e-05
1125 2 82.2911 36.5763 87.3618 7.35156e-06 0.00036234 -0.000272351
1127 5 82.3726 34.6025 85.7894 4.10367e-06 -9.52783e-05 0.00028657
1128 5 84.7113 33.2871 86.3607 -3.76186e-05 0.000212956 8.30831e-05
1130 1 84.8682 36.2395 86.7336 -0.000123331 -0.000156397 -0.00035412
1126 1 81.2062 37.6629 85.1398 -0.000333371 4.22975e-05 0.000133541
1072 1 82.5948 32.0006 87.8922 -0.000238708 0.00050123 4.61188e-05
783 2 83.6831 37.6064 84.584 -0.000337307 0.000170739 -7.12612e-05
1462 1 81.1797 36.4285 93.0435 0.000537902 -0.000626147 0.000413932
1470 2 85.8029 36.0295 90.8158 -0.000145406 -0.000220577 0.00056317
1467 4 85.9825 35.5521 93.369 -0.000244119 0.000436331 0.000259758
1465 2 83.6639 37.9941 92.2765 0.000195472 -0.000157713 -0.000915031
1464 1 81.2761 36.1577 89.8237 -7.78651e-05 0.000695934 -0.00033396
1466 1 83.4905 35.3298 91.7898 -0.000126075 8.67147e-05 -1.64222e-05
1416 1 81.6219 33.2413 90.6455 -0.000425798 9.33945e-05 -0.000230743
1417 4 84.4645 32.5449 92.9383 -0.000239366 -5.55368e-05 0.000252267
1423 1 85.0642 33.314 90.3694 -6.23578e-05 -0.000734968 -1.28454e-05
1469 1 83.9697 37.2567 89.3608 0.0004204 0.000103351 -0.000127671
1736 4 85.7361 38.2215 93.6888 -0.000334104 0.00071593 -0.000194327
1695 2 85.57 33.4369 97.4857 0.803949 -0.384494 1.04815
1694 3 82.9744 33.1203 97.1708 -0.115703 0.45315 -0.461713
1731 4 80.8446 35.0474 95.4157 0.0706551 0.3116 0.779227
1732 5 84.7251 33.9679 95.2137 -0.000390761 0.000302111 4.34661e-05
1733 1 83.7992 35.7104 97.5258 0.190621 0.63761 0.164195
1735 3 85.2322 38.2494 96.4831 0.000204161 -0.000267077 -0.000102859
1734 1 83.6098 36.6663 94.7439 -0.000245937 0.000207795 -0.000408981
1463 4 82.3895 33.7095 93.921 -8.94165e-05 0.000197551 -0.000150578
57 5 80.9936 38.466 65.6043 1.01705 0.483044 -1.19787
59 3 83.5947 43.1683 67.6491 -0.00018613 0.000163555 -0.000215105