LAMMPS (2 Aug 2023)
WARNING: Using I/O redirection is unreliable with parallel runs. Better to use the -in switch to read input files. (src/lammps.cpp:537)
OMP_NUM_THREADS environment is not set. Defaulting to 1 thread. (src/comm.cpp:98)
  using 1 OpenMP thread(s) per MPI task

            dimension 3
            units metal
            boundary s s s
            atom_style atomic
            timestep 0.001
            region myregion block 68.20034 114.37180000000001 16.759 59.9777 62.968752550143265 105.48532836676218  units box
            create_box 5 myregion
Created orthogonal box = (68.20034 16.759 62.968753) to (114.3718 59.9777 105.48533)
  8 by 6 by 4 MPI processor grid
            mass 1 91.224
            mass 2 63.546
            mass 3 58.693
            mass 4 26.982
            mass 5 47.867 
            pair_style eam/alloy
            pair_coeff * * ZrTiCuNiAl_Zhou04.eam.alloy Zr Cu Ni Al Ti
Reading eam/alloy potential file ZrTiCuNiAl_Zhou04.eam.alloy with DATE: 2018-03-30
            create_atoms 1 single 80.3283 27.9578 69.71314383954154
Created 1 atoms
  using lattice units in orthogonal box = (68.195723 16.754678 62.964501) to (114.37642 59.982022 105.48958)
  create_atoms CPU = 0.000 seconds
create_atoms 1 single 83.23294 27.4168 69.2019887679083
Created 1 atoms
  using lattice units in orthogonal box = (68.195723 16.754678 62.964501) to (114.37642 59.982022 105.48958)
  create_atoms CPU = 0.000 seconds
create_atoms 1 single 85.76458 28.0728 68.24047896848137
Created 1 atoms
  using lattice units in orthogonal box = (68.195723 16.754678 62.964501) to (114.37642 59.982022 105.48958)
  create_atoms CPU = 0.000 seconds
create_atoms 2 single 88.32672000000001 27.8478 67.65270957020057
Created 1 atoms
  using lattice units in orthogonal box = (68.195723 16.754678 62.964501) to (114.37642 59.982022 105.48958)
  create_atoms CPU = 0.000 seconds
create_atoms 1 single 88.82116 25.8319 69.75773730659026
Created 1 atoms
  using lattice units in orthogonal box = (68.195723 16.754678 62.964501) to (114.37642 59.982022 105.48958)
  create_atoms CPU = 0.000 seconds
create_atoms 2 single 91.15168 27.4889 69.44568126074499
Created 1 atoms
  using lattice units in orthogonal box = (68.195723 16.754678 62.964501) to (114.37642 59.982022 105.48958)
  create_atoms CPU = 0.000 seconds
create_atoms 3 single 76.76796 31.3167 69.68898085959884
Created 1 atoms
  using lattice units in orthogonal box = (68.195723 16.754678 62.964501) to (114.37642 59.982022 105.48958)
  create_atoms CPU = 0.000 seconds
create_atoms 2 single 78.32684 30.2157 68.47562601719197
Created 1 atoms
  using lattice units in orthogonal box = (68.195723 16.754678 62.964501) to (114.37642 59.982022 105.48958)
  create_atoms CPU = 0.000 seconds
create_atoms 3 single 78.58946 33.0285 67.19115736389685
Created 1 atoms
  using lattice units in orthogonal box = (68.195723 16.754678 62.964501) to (114.37642 59.982022 105.48958)
  create_atoms CPU = 0.000 seconds
create_atoms 3 single 80.96334 30.3521 69.03107988538682
Created 1 atoms
  using lattice units in orthogonal box = (68.195723 16.754678 62.964501) to (114.37642 59.982022 105.48958)
  create_atoms CPU = 0.000 seconds
create_atoms 1 single 83.46816 30.2683 68.45087369627507
Created 1 atoms
  using lattice units in orthogonal box = (68.195723 16.754678 62.964501) to (114.37642 59.982022 105.48958)
  create_atoms CPU = 0.000 seconds
create_atoms 1 single 81.11588 32.1646 67.30833799426934
Created 1 atoms
  using lattice units in orthogonal box = (68.195723 16.754678 62.964501) to (114.37642 59.982022 105.48958)
  create_atoms CPU = 0.000 seconds
create_atoms 3 single 84.30998 29.8351 66.39731507163324
Created 1 atoms
  using lattice units in orthogonal box = (68.195723 16.754678 62.964501) to (114.37642 59.982022 105.48958)
  create_atoms CPU = 0.000 seconds
create_atoms 1 single 84.32236 32.4499 66.97948573065902
Created 1 atoms
  using lattice units in orthogonal box = (68.195723 16.754678 62.964501) to (114.37642 59.982022 105.48958)
  create_atoms CPU = 0.000 seconds
create_atoms 1 single 87.14064 30.535 67.16679793696275
Created 1 atoms
  using lattice units in orthogonal box = (68.195723 16.754678 62.964501) to (114.37642 59.982022 105.48958)
  create_atoms CPU = 0.000 seconds
create_atoms 3 single 87.05856 33.2428 67.4337693982808
Created 1 atoms
  using lattice units in orthogonal box = (68.195723 16.754678 62.964501) to (114.37642 59.982022 105.48958)
  create_atoms CPU = 0.000 seconds
create_atoms 2 single 86.34262000000001 30.8024 69.19285398280802
Created 1 atoms
  using lattice units in orthogonal box = (68.195723 16.754678 62.964501) to (114.37642 59.982022 105.48958)
  create_atoms CPU = 0.000 seconds
create_atoms 1 single 88.8896 32.0486 69.69202578796562
Created 1 atoms
  using lattice units in orthogonal box = (68.195723 16.754678 62.964501) to (114.37642 59.982022 105.48958)
  create_atoms CPU = 0.000 seconds
create_atoms 1 single 90.35430000000001 30.0396 68.39105558739254
Created 1 atoms
  using lattice units in orthogonal box = (68.195723 16.754678 62.964501) to (114.37642 59.982022 105.48958)
  create_atoms CPU = 0.000 seconds
create_atoms 1 single 93.06264 31.6316 68.10385008595988
Created 1 atoms
  using lattice units in orthogonal box = (68.195723 16.754678 62.964501) to (114.37642 59.982022 105.48958)
  create_atoms CPU = 0.000 seconds
create_atoms 1 single 89.7608 32.9053 67.3263128939828
Created 1 atoms
  using lattice units in orthogonal box = (68.195723 16.754678 62.964501) to (114.37642 59.982022 105.48958)
  create_atoms CPU = 0.000 seconds
create_atoms 1 single 95.59882 33.4065 68.4768046991404
Created 1 atoms
  using lattice units in orthogonal box = (68.195723 16.754678 62.964501) to (114.37642 59.982022 105.48958)
  create_atoms CPU = 0.000 seconds
create_atoms 4 single 74.42924000000001 36.0718 68.00562659025788
Created 1 atoms
  using lattice units in orthogonal box = (68.195723 16.754678 62.964501) to (114.37642 59.982022 105.48958)
  create_atoms CPU = 0.000 seconds
create_atoms 5 single 78.47382 35.6346 66.38562647564468
Created 1 atoms
  using lattice units in orthogonal box = (68.195723 16.754678 62.964501) to (114.37642 59.982022 105.48958)
  create_atoms CPU = 0.000 seconds
create_atoms 1 single 77.41246 34.7897 68.37327713467047
Created 1 atoms
  using lattice units in orthogonal box = (68.195723 16.754678 62.964501) to (114.37642 59.982022 105.48958)
  create_atoms CPU = 0.000 seconds
create_atoms 2 single 76.59936 37.6213 67.61793845272206
Created 1 atoms
  using lattice units in orthogonal box = (68.195723 16.754678 62.964501) to (114.37642 59.982022 105.48958)
  create_atoms CPU = 0.000 seconds
create_atoms 1 single 79.51388 37.3655 69.14708183381089
Created 1 atoms
  using lattice units in orthogonal box = (68.195723 16.754678 62.964501) to (114.37642 59.982022 105.48958)
  create_atoms CPU = 0.000 seconds
create_atoms 2 single 83.48258 33.6035 68.79003942693409
Created 1 atoms
  using lattice units in orthogonal box = (68.195723 16.754678 62.964501) to (114.37642 59.982022 105.48958)
  create_atoms CPU = 0.000 seconds
create_atoms 1 single 80.93531999999999 34.6329 68.89376343839541
Created 1 atoms
  using lattice units in orthogonal box = (68.195723 16.754678 62.964501) to (114.37642 59.982022 105.48958)
  create_atoms CPU = 0.000 seconds
create_atoms 3 single 80.8081 36.8803 67.44123438395415
Created 1 atoms
  using lattice units in orthogonal box = (68.195723 16.754678 62.964501) to (114.37642 59.982022 105.48958)
  create_atoms CPU = 0.000 seconds
create_atoms 1 single 81.7863 34.8223 66.44082808022922
Created 1 atoms
  using lattice units in orthogonal box = (68.195723 16.754678 62.964501) to (114.37642 59.982022 105.48958)
  create_atoms CPU = 0.000 seconds
create_atoms 1 single 83.57248 36.4868 68.858304756447
Created 1 atoms
  using lattice units in orthogonal box = (68.195723 16.754678 62.964501) to (114.37642 59.982022 105.48958)
  create_atoms CPU = 0.000 seconds
create_atoms 4 single 82.98125999999999 36.7337 65.18445134670486
Created 1 atoms
  using lattice units in orthogonal box = (68.195723 16.754678 62.964501) to (114.37642 59.982022 105.48958)
  create_atoms CPU = 0.000 seconds
create_atoms 1 single 85.23296 35.3785 67.35420836676218
Created 1 atoms
  using lattice units in orthogonal box = (68.195723 16.754678 62.964501) to (114.37642 59.982022 105.48958)
  create_atoms CPU = 0.000 seconds
create_atoms 4 single 85.73053999999999 37.7225 65.61781340974211
Created 1 atoms
  using lattice units in orthogonal box = (68.195723 16.754678 62.964501) to (114.37642 59.982022 105.48958)
  create_atoms CPU = 0.000 seconds
create_atoms 2 single 86.13436 33.5034 69.37515679083094
Created 1 atoms
  using lattice units in orthogonal box = (68.195723 16.754678 62.964501) to (114.37642 59.982022 105.48958)
  create_atoms CPU = 0.000 seconds
create_atoms 4 single 87.31158 37.7329 68.31316435530086
Created 1 atoms
  using lattice units in orthogonal box = (68.195723 16.754678 62.964501) to (114.37642 59.982022 105.48958)
  create_atoms CPU = 0.000 seconds
create_atoms 1 single 87.90554 35.5437 66.53374750716331
Created 1 atoms
  using lattice units in orthogonal box = (68.195723 16.754678 62.964501) to (114.37642 59.982022 105.48958)
  create_atoms CPU = 0.000 seconds
create_atoms 1 single 88.39848 35.0831 69.38183598853868
Created 1 atoms
  using lattice units in orthogonal box = (68.195723 16.754678 62.964501) to (114.37642 59.982022 105.48958)
  create_atoms CPU = 0.000 seconds
create_atoms 4 single 90.40894 36.6066 65.87712343839542
Created 1 atoms
  using lattice units in orthogonal box = (68.195723 16.754678 62.964501) to (114.37642 59.982022 105.48958)
  create_atoms CPU = 0.000 seconds
create_atoms 3 single 93.50708 34.2512 69.39853398280802
Created 1 atoms
  using lattice units in orthogonal box = (68.195723 16.754678 62.964501) to (114.37642 59.982022 105.48958)
  create_atoms CPU = 0.000 seconds
create_atoms 1 single 92.31086 34.2668 66.78549432664755
Created 1 atoms
  using lattice units in orthogonal box = (68.195723 16.754678 62.964501) to (114.37642 59.982022 105.48958)
  create_atoms CPU = 0.000 seconds
create_atoms 1 single 90.99872 35.5101 68.64476687679084
Created 1 atoms
  using lattice units in orthogonal box = (68.195723 16.754678 62.964501) to (114.37642 59.982022 105.48958)
  create_atoms CPU = 0.000 seconds
create_atoms 1 single 93.89016 36.6853 68.32318315186245
Created 1 atoms
  using lattice units in orthogonal box = (68.195723 16.754678 62.964501) to (114.37642 59.982022 105.48958)
  create_atoms CPU = 0.000 seconds
create_atoms 4 single 89.85276 38.1028 67.69209719197707
Created 1 atoms
  using lattice units in orthogonal box = (68.195723 16.754678 62.964501) to (114.37642 59.982022 105.48958)
  create_atoms CPU = 0.000 seconds
create_atoms 2 single 97.11166 37.1609 69.37564790830945
Created 1 atoms
  using lattice units in orthogonal box = (68.195723 16.754678 62.964501) to (114.37642 59.982022 105.48958)
  create_atoms CPU = 0.000 seconds
create_atoms 1 single 98.56392 34.6253 69.71687633237822
Created 1 atoms
  using lattice units in orthogonal box = (68.195723 16.754678 62.964501) to (114.37642 59.982022 105.48958)
  create_atoms CPU = 0.000 seconds
create_atoms 4 single 71.96062 39.5491 69.27143277936962
Created 1 atoms
  using lattice units in orthogonal box = (68.195723 16.754678 62.964501) to (114.37642 59.982022 105.48958)
  create_atoms CPU = 0.000 seconds
create_atoms 1 single 74.80896 38.8895 68.89386166189111
Created 1 atoms
  using lattice units in orthogonal box = (68.195723 16.754678 62.964501) to (114.37642 59.982022 105.48958)
  create_atoms CPU = 0.000 seconds
create_atoms 4 single 73.71284 41.527 67.80475954154727
Created 1 atoms
  using lattice units in orthogonal box = (68.195723 16.754678 62.964501) to (114.37642 59.982022 105.48958)
  create_atoms CPU = 0.000 seconds
create_atoms 1 single 78.4847 38.682 66.51351346704871
Created 1 atoms
  using lattice units in orthogonal box = (68.195723 16.754678 62.964501) to (114.37642 59.982022 105.48958)
  create_atoms CPU = 0.000 seconds
create_atoms 1 single 76.39664 40.5321 67.3848540974212
Created 1 atoms
  using lattice units in orthogonal box = (68.195723 16.754678 62.964501) to (114.37642 59.982022 105.48958)
  create_atoms CPU = 0.000 seconds
create_atoms 1 single 78.26712 42.79 66.76427805157593
Created 1 atoms
  using lattice units in orthogonal box = (68.195723 16.754678 62.964501) to (114.37642 59.982022 105.48958)
  create_atoms CPU = 0.000 seconds
create_atoms 1 single 79.5764 40.5537 68.83993696275071
Created 1 atoms
  using lattice units in orthogonal box = (68.195723 16.754678 62.964501) to (114.37642 59.982022 105.48958)
  create_atoms CPU = 0.000 seconds
create_atoms 1 single 78.07958 42.7909 69.46827266475644
Created 1 atoms
  using lattice units in orthogonal box = (68.195723 16.754678 62.964501) to (114.37642 59.982022 105.48958)
  create_atoms CPU = 0.000 seconds
create_atoms 3 single 77.79334 39.1275 69.7009641260745
Created 1 atoms
  using lattice units in orthogonal box = (68.195723 16.754678 62.964501) to (114.37642 59.982022 105.48958)
  create_atoms CPU = 0.000 seconds
create_atoms 5 single 80.99362 38.466 65.60425856733525
Created 1 atoms
  using lattice units in orthogonal box = (68.195723 16.754678 62.964501) to (114.37642 59.982022 105.48958)
  create_atoms CPU = 0.000 seconds
create_atoms 2 single 79.83612000000001 40.9001 66.09439381088825
Created 1 atoms
  using lattice units in orthogonal box = (68.195723 16.754678 62.964501) to (114.37642 59.982022 105.48958)
  create_atoms CPU = 0.000 seconds
create_atoms 3 single 84.00644000000001 43.2042 67.7713635530086
Created 1 atoms
  using lattice units in orthogonal box = (68.195723 16.754678 62.964501) to (114.37642 59.982022 105.48958)
  create_atoms CPU = 0.000 seconds
create_atoms 1 single 82.62452 41.0872 66.26530269340975
Created 1 atoms
  using lattice units in orthogonal box = (68.195723 16.754678 62.964501) to (114.37642 59.982022 105.48958)
  create_atoms CPU = 0.000 seconds
create_atoms 1 single 81.90164 39.2016 68.35284664756446
Created 1 atoms
  using lattice units in orthogonal box = (68.195723 16.754678 62.964501) to (114.37642 59.982022 105.48958)
  create_atoms CPU = 0.000 seconds
create_atoms 3 single 81.5326 41.9469 68.13321891117478
Created 1 atoms
  using lattice units in orthogonal box = (68.195723 16.754678 62.964501) to (114.37642 59.982022 105.48958)
  create_atoms CPU = 0.000 seconds
create_atoms 2 single 84.01706 41.0639 68.88403931232092
Created 1 atoms
  using lattice units in orthogonal box = (68.195723 16.754678 62.964501) to (114.37642 59.982022 105.48958)
  create_atoms CPU = 0.000 seconds
create_atoms 4 single 84.26952 38.6074 67.23820641833811
Created 1 atoms
  using lattice units in orthogonal box = (68.195723 16.754678 62.964501) to (114.37642 59.982022 105.48958)
  create_atoms CPU = 0.000 seconds
create_atoms 4 single 86.22785999999999 39.4083 69.7061699713467
Created 1 atoms
  using lattice units in orthogonal box = (68.195723 16.754678 62.964501) to (114.37642 59.982022 105.48958)
  create_atoms CPU = 0.000 seconds
create_atoms 4 single 84.88554 41.0732 65.05793948424069
Created 1 atoms
  using lattice units in orthogonal box = (68.195723 16.754678 62.964501) to (114.37642 59.982022 105.48958)
  create_atoms CPU = 0.000 seconds
create_atoms 1 single 87.9749 42.5969 65.79157077363897
Created 1 atoms
  using lattice units in orthogonal box = (68.195723 16.754678 62.964501) to (114.37642 59.982022 105.48958)
  create_atoms CPU = 0.000 seconds
create_atoms 1 single 86.07672000000001 41.3441 67.77843564469914
Created 1 atoms
  using lattice units in orthogonal box = (68.195723 16.754678 62.964501) to (114.37642 59.982022 105.48958)
  create_atoms CPU = 0.000 seconds
create_atoms 4 single 87.7431 39.7797 66.27384813753581
Created 1 atoms
  using lattice units in orthogonal box = (68.195723 16.754678 62.964501) to (114.37642 59.982022 105.48958)
  create_atoms CPU = 0.000 seconds
create_atoms 1 single 88.87684 42.876 68.69712
Created 1 atoms
  using lattice units in orthogonal box = (68.195723 16.754678 62.964501) to (114.37642 59.982022 105.48958)
  create_atoms CPU = 0.000 seconds
create_atoms 4 single 89.1152 39.9309 69.2357776504298
Created 1 atoms
  using lattice units in orthogonal box = (68.195723 16.754678 62.964501) to (114.37642 59.982022 105.48958)
  create_atoms CPU = 0.000 seconds
create_atoms 4 single 90.12052 40.8507 64.96875255014326
Created 1 atoms
  using lattice units in orthogonal box = (68.195723 16.754678 62.964501) to (114.37642 59.982022 105.48958)
  create_atoms CPU = 0.000 seconds
create_atoms 1 single 90.7402 41.115 67.66763954154727
Created 1 atoms
  using lattice units in orthogonal box = (68.195723 16.754678 62.964501) to (114.37642 59.982022 105.48958)
  create_atoms CPU = 0.000 seconds
create_atoms 5 single 92.23264 38.9926 66.8755652722063
Created 1 atoms
  using lattice units in orthogonal box = (68.195723 16.754678 62.964501) to (114.37642 59.982022 105.48958)
  create_atoms CPU = 0.000 seconds
create_atoms 1 single 93.30328 41.7899 66.7681087679083
Created 1 atoms
  using lattice units in orthogonal box = (68.195723 16.754678 62.964501) to (114.37642 59.982022 105.48958)
  create_atoms CPU = 0.000 seconds
create_atoms 4 single 92.33478000000001 38.8857 69.715304756447
Created 1 atoms
  using lattice units in orthogonal box = (68.195723 16.754678 62.964501) to (114.37642 59.982022 105.48958)
  create_atoms CPU = 0.000 seconds
create_atoms 1 single 93.9425 41.2555 69.55107507163324
Created 1 atoms
  using lattice units in orthogonal box = (68.195723 16.754678 62.964501) to (114.37642 59.982022 105.48958)
  create_atoms CPU = 0.000 seconds
create_atoms 1 single 95.3602 39.4288 68.04530888252148
Created 1 atoms
  using lattice units in orthogonal box = (68.195723 16.754678 62.964501) to (114.37642 59.982022 105.48958)
  create_atoms CPU = 0.000 seconds
create_atoms 5 single 96.46256 42.1786 68.89680836676217
Created 1 atoms
  using lattice units in orthogonal box = (68.195723 16.754678 62.964501) to (114.37642 59.982022 105.48958)
  create_atoms CPU = 0.000 seconds
create_atoms 1 single 75.18773999999999 43.697 69.53201971346704
Created 1 atoms
  using lattice units in orthogonal box = (68.195723 16.754678 62.964501) to (114.37642 59.982022 105.48958)
  create_atoms CPU = 0.000 seconds
create_atoms 3 single 75.80164 43.3492 67.28368389684815
Created 1 atoms
  using lattice units in orthogonal box = (68.195723 16.754678 62.964501) to (114.37642 59.982022 105.48958)
  create_atoms CPU = 0.000 seconds
create_atoms 1 single 77.59562000000001 45.5629 68.67668951289399
Created 1 atoms
  using lattice units in orthogonal box = (68.195723 16.754678 62.964501) to (114.37642 59.982022 105.48958)
  create_atoms CPU = 0.000 seconds
create_atoms 5 single 79.04086 45.7224 66.84541065902579
Created 1 atoms
  using lattice units in orthogonal box = (68.195723 16.754678 62.964501) to (114.37642 59.982022 105.48958)
  create_atoms CPU = 0.000 seconds
create_atoms 5 single 79.52144 47.9968 68.49134177650429
Created 1 atoms
  using lattice units in orthogonal box = (68.195723 16.754678 62.964501) to (114.37642 59.982022 105.48958)
  create_atoms CPU = 0.000 seconds
create_atoms 4 single 83.07128 43.6221 65.10616722063037
Created 1 atoms
  using lattice units in orthogonal box = (68.195723 16.754678 62.964501) to (114.37642 59.982022 105.48958)
  create_atoms CPU = 0.000 seconds
create_atoms 2 single 80.3479 43.8363 68.83748137535815
Created 1 atoms
  using lattice units in orthogonal box = (68.195723 16.754678 62.964501) to (114.37642 59.982022 105.48958)
  create_atoms CPU = 0.000 seconds
create_atoms 1 single 81.16004000000001 43.9325 66.59808389684814
Created 1 atoms
  using lattice units in orthogonal box = (68.195723 16.754678 62.964501) to (114.37642 59.982022 105.48958)
  create_atoms CPU = 0.000 seconds
create_atoms 1 single 83.62308 45.8998 67.33387610315185
Created 1 atoms
  using lattice units in orthogonal box = (68.195723 16.754678 62.964501) to (114.37642 59.982022 105.48958)
  create_atoms CPU = 0.000 seconds
create_atoms 3 single 81.67862000000001 46.0351 68.53917661891117
Created 1 atoms
  using lattice units in orthogonal box = (68.195723 16.754678 62.964501) to (114.37642 59.982022 105.48958)
  create_atoms CPU = 0.000 seconds
create_atoms 1 single 83.30264 44.0658 69.76677386819483
Created 1 atoms
  using lattice units in orthogonal box = (68.195723 16.754678 62.964501) to (114.37642 59.982022 105.48958)
  create_atoms CPU = 0.000 seconds
create_atoms 1 single 86.00064 44.2055 66.75475037249284
Created 1 atoms
  using lattice units in orthogonal box = (68.195723 16.754678 62.964501) to (114.37642 59.982022 105.48958)
  create_atoms CPU = 0.000 seconds
create_atoms 2 single 88.86568 45.3817 69.70008011461319
Created 1 atoms
  using lattice units in orthogonal box = (68.195723 16.754678 62.964501) to (114.37642 59.982022 105.48958)
  create_atoms CPU = 0.000 seconds
create_atoms 1 single 86.74824 46.8319 68.17948217765043
Created 1 atoms
  using lattice units in orthogonal box = (68.195723 16.754678 62.964501) to (114.37642 59.982022 105.48958)
  create_atoms CPU = 0.000 seconds
create_atoms 1 single 89.05496000000001 45.3681 67.24763587392549
Created 1 atoms
  using lattice units in orthogonal box = (68.195723 16.754678 62.964501) to (114.37642 59.982022 105.48958)
  create_atoms CPU = 0.000 seconds
create_atoms 2 single 89.59524 47.7642 68.58219851002865
Created 1 atoms
  using lattice units in orthogonal box = (68.195723 16.754678 62.964501) to (114.37642 59.982022 105.48958)
  create_atoms CPU = 0.000 seconds
create_atoms 1 single 86.5169 43.9939 69.67974785100286
Created 1 atoms
  using lattice units in orthogonal box = (68.195723 16.754678 62.964501) to (114.37642 59.982022 105.48958)
  create_atoms CPU = 0.000 seconds
create_atoms 1 single 90.89884 43.7017 66.10549306590258
Created 1 atoms
  using lattice units in orthogonal box = (68.195723 16.754678 62.964501) to (114.37642 59.982022 105.48958)
  create_atoms CPU = 0.000 seconds
create_atoms 2 single 91.45938 43.6098 68.66431335243553
Created 1 atoms
  using lattice units in orthogonal box = (68.195723 16.754678 62.964501) to (114.37642 59.982022 105.48958)
  create_atoms CPU = 0.000 seconds
create_atoms 2 single 93.9681 43.8652 68.60027163323781
Created 1 atoms
  using lattice units in orthogonal box = (68.195723 16.754678 62.964501) to (114.37642 59.982022 105.48958)
  create_atoms CPU = 0.000 seconds
create_atoms 1 single 92.06716 46.1428 67.80800091690544
Created 1 atoms
  using lattice units in orthogonal box = (68.195723 16.754678 62.964501) to (114.37642 59.982022 105.48958)
  create_atoms CPU = 0.000 seconds
create_atoms 4 single 97.11468 45.2181 69.57189845272207
Created 1 atoms
  using lattice units in orthogonal box = (68.195723 16.754678 62.964501) to (114.37642 59.982022 105.48958)
  create_atoms CPU = 0.000 seconds
create_atoms 1 single 81.86784 48.3047 67.47767530085959
Created 1 atoms
  using lattice units in orthogonal box = (68.195723 16.754678 62.964501) to (114.37642 59.982022 105.48958)
  create_atoms CPU = 0.000 seconds
create_atoms 2 single 81.50628 50.0154 69.3145528939828
Created 1 atoms
  using lattice units in orthogonal box = (68.195723 16.754678 62.964501) to (114.37642 59.982022 105.48958)
  create_atoms CPU = 0.000 seconds
create_atoms 1 single 85.02538 48.9366 68.76008126074498
Created 1 atoms
  using lattice units in orthogonal box = (68.195723 16.754678 62.964501) to (114.37642 59.982022 105.48958)
  create_atoms CPU = 0.000 seconds
create_atoms 2 single 87.16246000000001 22.6264 74.06336424068768
Created 1 atoms
  using lattice units in orthogonal box = (68.195723 16.754678 62.964501) to (114.37642 59.982022 105.48958)
  create_atoms CPU = 0.000 seconds
create_atoms 1 single 89.64066 23.4217 73.79177627507163
Created 1 atoms
  using lattice units in orthogonal box = (68.195723 16.754678 62.964501) to (114.37642 59.982022 105.48958)
  create_atoms CPU = 0.000 seconds
create_atoms 1 single 75.44446 26.8078 73.19015736389684
Created 1 atoms
  using lattice units in orthogonal box = (68.195723 16.754678 62.964501) to (114.37642 59.982022 105.48958)
  create_atoms CPU = 0.000 seconds
create_atoms 3 single 77.56402 25.184 72.85315255014326
Created 1 atoms
  using lattice units in orthogonal box = (68.195723 16.754678 62.964501) to (114.37642 59.982022 105.48958)
  create_atoms CPU = 0.000 seconds
create_atoms 3 single 77.54034 27.7613 72.55681226361031
Created 1 atoms
  using lattice units in orthogonal box = (68.195723 16.754678 62.964501) to (114.37642 59.982022 105.48958)
  create_atoms CPU = 0.000 seconds
create_atoms 1 single 79.73816 26.4182 72.1155923209169
Created 1 atoms
  using lattice units in orthogonal box = (68.195723 16.754678 62.964501) to (114.37642 59.982022 105.48958)
  create_atoms CPU = 0.000 seconds
create_atoms 1 single 80.30418 23.9642 74.14714888252149
Created 1 atoms
  using lattice units in orthogonal box = (68.195723 16.754678 62.964501) to (114.37642 59.982022 105.48958)
  create_atoms CPU = 0.000 seconds
create_atoms 2 single 85.5527 24.263 74.58306475644699
Created 1 atoms
  using lattice units in orthogonal box = (68.195723 16.754678 62.964501) to (114.37642 59.982022 105.48958)
  create_atoms CPU = 0.000 seconds
create_atoms 1 single 82.10288 25.5922 70.7589293982808
Created 1 atoms
  using lattice units in orthogonal box = (68.195723 16.754678 62.964501) to (114.37642 59.982022 105.48958)
  create_atoms CPU = 0.000 seconds
create_atoms 3 single 82.09518 27.8257 72.35702567335244
Created 1 atoms
  using lattice units in orthogonal box = (68.195723 16.754678 62.964501) to (114.37642 59.982022 105.48958)
  create_atoms CPU = 0.000 seconds
create_atoms 4 single 84.8307 24.0573 71.89174097421203
Created 1 atoms
  using lattice units in orthogonal box = (68.195723 16.754678 62.964501) to (114.37642 59.982022 105.48958)
  create_atoms CPU = 0.000 seconds
create_atoms 1 single 82.7603 25.1262 73.51881318051575
Created 1 atoms
  using lattice units in orthogonal box = (68.195723 16.754678 62.964501) to (114.37642 59.982022 105.48958)
  create_atoms CPU = 0.000 seconds
create_atoms 1 single 84.83384 27.1441 72.32893375358167
Created 1 atoms
  using lattice units in orthogonal box = (68.195723 16.754678 62.964501) to (114.37642 59.982022 105.48958)
  create_atoms CPU = 0.000 seconds
create_atoms 3 single 87.94726 23.8627 71.22961638968481
Created 1 atoms
  using lattice units in orthogonal box = (68.195723 16.754678 62.964501) to (114.37642 59.982022 105.48958)
  create_atoms CPU = 0.000 seconds
create_atoms 1 single 86.20902000000001 26.0614 70.44422131805158
Created 1 atoms
  using lattice units in orthogonal box = (68.195723 16.754678 62.964501) to (114.37642 59.982022 105.48958)
  create_atoms CPU = 0.000 seconds
create_atoms 4 single 87.26952000000001 25.3373 73.40418636103152
Created 1 atoms
  using lattice units in orthogonal box = (68.195723 16.754678 62.964501) to (114.37642 59.982022 105.48958)
  create_atoms CPU = 0.000 seconds
create_atoms 1 single 90.98128 23.996 71.81483197707736
Created 1 atoms
  using lattice units in orthogonal box = (68.195723 16.754678 62.964501) to (114.37642 59.982022 105.48958)
  create_atoms CPU = 0.000 seconds
create_atoms 3 single 89.29922 25.8244 72.39935999999999
Created 1 atoms
  using lattice units in orthogonal box = (68.195723 16.754678 62.964501) to (114.37642 59.982022 105.48958)
  create_atoms CPU = 0.000 seconds
create_atoms 4 single 87.89958 27.9109 72.42823770773639
Created 1 atoms
  using lattice units in orthogonal box = (68.195723 16.754678 62.964501) to (114.37642 59.982022 105.48958)
  create_atoms CPU = 0.000 seconds
create_atoms 2 single 91.97174000000001 25.1436 74.26393661891117
Created 1 atoms
  using lattice units in orthogonal box = (68.195723 16.754678 62.964501) to (114.37642 59.982022 105.48958)
  create_atoms CPU = 0.000 seconds
create_atoms 1 single 91.45126 26.9524 71.94812126074497
Created 1 atoms
  using lattice units in orthogonal box = (68.195723 16.754678 62.964501) to (114.37642 59.982022 105.48958)
  create_atoms CPU = 0.000 seconds
create_atoms 1 single 94.11576000000001 26.6698 70.96097512893982
Created 1 atoms
  using lattice units in orthogonal box = (68.195723 16.754678 62.964501) to (114.37642 59.982022 105.48958)
  create_atoms CPU = 0.000 seconds
create_atoms 1 single 94.07446 25.0994 73.2269911747851
Created 1 atoms
  using lattice units in orthogonal box = (68.195723 16.754678 62.964501) to (114.37642 59.982022 105.48958)
  create_atoms CPU = 0.000 seconds
create_atoms 3 single 93.7699 28.4522 72.53903381088824
Created 1 atoms
  using lattice units in orthogonal box = (68.195723 16.754678 62.964501) to (114.37642 59.982022 105.48958)
  create_atoms CPU = 0.000 seconds
create_atoms 1 single 96.99482 26.5229 73.29172045845272
Created 1 atoms
  using lattice units in orthogonal box = (68.195723 16.754678 62.964501) to (114.37642 59.982022 105.48958)
  create_atoms CPU = 0.000 seconds
create_atoms 3 single 99.89304000000001 27.065 74.18977787965615
Created 1 atoms
  using lattice units in orthogonal box = (68.195723 16.754678 62.964501) to (114.37642 59.982022 105.48958)
  create_atoms CPU = 0.000 seconds
create_atoms 5 single 71.61176 30.2144 74.48867197707736
Created 1 atoms
  using lattice units in orthogonal box = (68.195723 16.754678 62.964501) to (114.37642 59.982022 105.48958)
  create_atoms CPU = 0.000 seconds
create_atoms 1 single 75.22236000000001 29.3477 71.6696576504298
Created 1 atoms
  using lattice units in orthogonal box = (68.195723 16.754678 62.964501) to (114.37642 59.982022 105.48958)
  create_atoms CPU = 0.000 seconds
create_atoms 1 single 74.86934 32.2291 71.16940538681948
Created 1 atoms
  using lattice units in orthogonal box = (68.195723 16.754678 62.964501) to (114.37642 59.982022 105.48958)
  create_atoms CPU = 0.000 seconds
create_atoms 1 single 74.2043 29.3183 74.04381776504297
Created 1 atoms
  using lattice units in orthogonal box = (68.195723 16.754678 62.964501) to (114.37642 59.982022 105.48958)
  create_atoms CPU = 0.000 seconds
create_atoms 2 single 75.8222 31.5057 73.89500916905443
Created 1 atoms
  using lattice units in orthogonal box = (68.195723 16.754678 62.964501) to (114.37642 59.982022 105.48958)
  create_atoms CPU = 0.000 seconds
create_atoms 1 single 72.91392 32.2351 73.25488664756448
Created 1 atoms
  using lattice units in orthogonal box = (68.195723 16.754678 62.964501) to (114.37642 59.982022 105.48958)
  create_atoms CPU = 0.000 seconds
create_atoms 1 single 77.80712000000001 28.7317 70.44225684813753
Created 1 atoms
  using lattice units in orthogonal box = (68.195723 16.754678 62.964501) to (114.37642 59.982022 105.48958)
  create_atoms CPU = 0.000 seconds
create_atoms 1 single 80.67254000000001 30.2662 71.60453547277938
Created 1 atoms
  using lattice units in orthogonal box = (68.195723 16.754678 62.964501) to (114.37642 59.982022 105.48958)
  create_atoms CPU = 0.000 seconds
create_atoms 1 single 77.92224 30.9282 72.30732458452721
Created 1 atoms
  using lattice units in orthogonal box = (68.195723 16.754678 62.964501) to (114.37642 59.982022 105.48958)
  create_atoms CPU = 0.000 seconds
create_atoms 1 single 79.48902 32.4981 69.79594624641834
Created 1 atoms
  using lattice units in orthogonal box = (68.195723 16.754678 62.964501) to (114.37642 59.982022 105.48958)
  create_atoms CPU = 0.000 seconds
create_atoms 3 single 79.82509999999999 28.9009 73.30665042979942
Created 1 atoms
  using lattice units in orthogonal box = (68.195723 16.754678 62.964501) to (114.37642 59.982022 105.48958)
  create_atoms CPU = 0.000 seconds
create_atoms 1 single 80.31302 33.0406 72.71809524355301
Created 1 atoms
  using lattice units in orthogonal box = (68.195723 16.754678 62.964501) to (114.37642 59.982022 105.48958)
  create_atoms CPU = 0.000 seconds
create_atoms 1 single 82.09506 30.6003 74.5593928939828
Created 1 atoms
  using lattice units in orthogonal box = (68.195723 16.754678 62.964501) to (114.37642 59.982022 105.48958)
  create_atoms CPU = 0.000 seconds
create_atoms 1 single 83.28664 29.6144 71.12176699140402
Created 1 atoms
  using lattice units in orthogonal box = (68.195723 16.754678 62.964501) to (114.37642 59.982022 105.48958)
  create_atoms CPU = 0.000 seconds
create_atoms 2 single 82.38586000000001 32.2711 70.21594991404011
Created 1 atoms
  using lattice units in orthogonal box = (68.195723 16.754678 62.964501) to (114.37642 59.982022 105.48958)
  create_atoms CPU = 0.000 seconds
create_atoms 1 single 85.2229 31.798 70.87463667621776
Created 1 atoms
  using lattice units in orthogonal box = (68.195723 16.754678 62.964501) to (114.37642 59.982022 105.48958)
  create_atoms CPU = 0.000 seconds
create_atoms 2 single 84.12599999999999 29.2523 73.78647220630371
Created 1 atoms
  using lattice units in orthogonal box = (68.195723 16.754678 62.964501) to (114.37642 59.982022 105.48958)
  create_atoms CPU = 0.000 seconds
create_atoms 1 single 83.71326 31.998 73.06295793696275
Created 1 atoms
  using lattice units in orthogonal box = (68.195723 16.754678 62.964501) to (114.37642 59.982022 105.48958)
  create_atoms CPU = 0.000 seconds
create_atoms 1 single 86.72864 32.9023 73.69325810888252
Created 1 atoms
  using lattice units in orthogonal box = (68.195723 16.754678 62.964501) to (114.37642 59.982022 105.48958)
  create_atoms CPU = 0.000 seconds
create_atoms 2 single 86.12888000000001 30.0268 72.97583369627506
Created 1 atoms
  using lattice units in orthogonal box = (68.195723 16.754678 62.964501) to (114.37642 59.982022 105.48958)
  create_atoms CPU = 0.000 seconds
create_atoms 2 single 85.74502 28.9799 70.61758578796561
Created 1 atoms
  using lattice units in orthogonal box = (68.195723 16.754678 62.964501) to (114.37642 59.982022 105.48958)
  create_atoms CPU = 0.000 seconds
create_atoms 1 single 88.6638 28.7673 70.11389570200573
Created 1 atoms
  using lattice units in orthogonal box = (68.195723 16.754678 62.964501) to (114.37642 59.982022 105.48958)
  create_atoms CPU = 0.000 seconds
create_atoms 1 single 88.22416 30.7481 71.9338788538682
Created 1 atoms
  using lattice units in orthogonal box = (68.195723 16.754678 62.964501) to (114.37642 59.982022 105.48958)
  create_atoms CPU = 0.000 seconds
create_atoms 4 single 90.60188000000001 28.8362 73.53521650429799
Created 1 atoms
  using lattice units in orthogonal box = (68.195723 16.754678 62.964501) to (114.37642 59.982022 105.48958)
  create_atoms CPU = 0.000 seconds
create_atoms 4 single 91.05404 32.3234 72.56958131805156
Created 1 atoms
  using lattice units in orthogonal box = (68.195723 16.754678 62.964501) to (114.37642 59.982022 105.48958)
  create_atoms CPU = 0.000 seconds
create_atoms 3 single 95.05392 32.5755 70.72317604584528
Created 1 atoms
  using lattice units in orthogonal box = (68.195723 16.754678 62.964501) to (114.37642 59.982022 105.48958)
  create_atoms CPU = 0.000 seconds
create_atoms 4 single 91.41334 29.9702 71.415455243553
Created 1 atoms
  using lattice units in orthogonal box = (68.195723 16.754678 62.964501) to (114.37642 59.982022 105.48958)
  create_atoms CPU = 0.000 seconds
create_atoms 1 single 93.53528000000001 29.499 70.108198739255
Created 1 atoms
  using lattice units in orthogonal box = (68.195723 16.754678 62.964501) to (114.37642 59.982022 105.48958)
  create_atoms CPU = 0.000 seconds
create_atoms 1 single 92.06742 32.4645 70.2207628653295
Created 1 atoms
  using lattice units in orthogonal box = (68.195723 16.754678 62.964501) to (114.37642 59.982022 105.48958)
  create_atoms CPU = 0.000 seconds
create_atoms 1 single 94.63248 31.1311 72.57999300859599
Created 1 atoms
  using lattice units in orthogonal box = (68.195723 16.754678 62.964501) to (114.37642 59.982022 105.48958)
  create_atoms CPU = 0.000 seconds
create_atoms 4 single 93.10116000000001 30.311 74.14930979942693
Created 1 atoms
  using lattice units in orthogonal box = (68.195723 16.754678 62.964501) to (114.37642 59.982022 105.48958)
  create_atoms CPU = 0.000 seconds
create_atoms 3 single 96.11498 28.8756 72.01815461318051
Created 1 atoms
  using lattice units in orthogonal box = (68.195723 16.754678 62.964501) to (114.37642 59.982022 105.48958)
  create_atoms CPU = 0.000 seconds
create_atoms 3 single 97.21506 31.13 72.46674131805158
Created 1 atoms
  using lattice units in orthogonal box = (68.195723 16.754678 62.964501) to (114.37642 59.982022 105.48958)
  create_atoms CPU = 0.000 seconds
create_atoms 1 single 96.30316 30.6328 69.91047484240687
Created 1 atoms
  using lattice units in orthogonal box = (68.195723 16.754678 62.964501) to (114.37642 59.982022 105.48958)
  create_atoms CPU = 0.000 seconds
create_atoms 1 single 98.90115999999999 29.262 71.89900951289398
Created 1 atoms
  using lattice units in orthogonal box = (68.195723 16.754678 62.964501) to (114.37642 59.982022 105.48958)
  create_atoms CPU = 0.000 seconds
create_atoms 3 single 97.63992 33.015 71.17647747851004
Created 1 atoms
  using lattice units in orthogonal box = (68.195723 16.754678 62.964501) to (114.37642 59.982022 105.48958)
  create_atoms CPU = 0.000 seconds
create_atoms 5 single 99.37895999999999 31.6255 70.47771553008594
Created 1 atoms
  using lattice units in orthogonal box = (68.195723 16.754678 62.964501) to (114.37642 59.982022 105.48958)
  create_atoms CPU = 0.000 seconds
create_atoms 5 single 98.58798 29.3114 74.25961478510028
Created 1 atoms
  using lattice units in orthogonal box = (68.195723 16.754678 62.964501) to (114.37642 59.982022 105.48958)
  create_atoms CPU = 0.000 seconds
create_atoms 1 single 99.86982 32.1264 73.33051873925501
Created 1 atoms
  using lattice units in orthogonal box = (68.195723 16.754678 62.964501) to (114.37642 59.982022 105.48958)
  create_atoms CPU = 0.000 seconds
create_atoms 1 single 101.7115 29.8015 74.38023323782234
Created 1 atoms
  using lattice units in orthogonal box = (68.195723 16.754678 62.964501) to (114.37642 59.982022 105.48958)
  create_atoms CPU = 0.000 seconds
create_atoms 3 single 102.83692 32.2138 73.79266028653295
Created 1 atoms
  using lattice units in orthogonal box = (68.195723 16.754678 62.964501) to (114.37642 59.982022 105.48958)
  create_atoms CPU = 0.000 seconds
create_atoms 1 single 71.82684 37.0667 72.21253891117479
Created 1 atoms
  using lattice units in orthogonal box = (68.195723 16.754678 62.964501) to (114.37642 59.982022 105.48958)
  create_atoms CPU = 0.000 seconds
create_atoms 5 single 70.48956 38.0601 74.12082498567335
Created 1 atoms
  using lattice units in orthogonal box = (68.195723 16.754678 62.964501) to (114.37642 59.982022 105.48958)
  create_atoms CPU = 0.000 seconds
create_atoms 1 single 73.60604000000001 34.632 72.04457673352435
Created 1 atoms
  using lattice units in orthogonal box = (68.195723 16.754678 62.964501) to (114.37642 59.982022 105.48958)
  create_atoms CPU = 0.000 seconds
create_atoms 2 single 75.00174 34.8164 70.29865409742119
Created 1 atoms
  using lattice units in orthogonal box = (68.195723 16.754678 62.964501) to (114.37642 59.982022 105.48958)
  create_atoms CPU = 0.000 seconds
create_atoms 1 single 73.53620000000001 37.1427 70.38843037249283
Created 1 atoms
  using lattice units in orthogonal box = (68.195723 16.754678 62.964501) to (114.37642 59.982022 105.48958)
  create_atoms CPU = 0.000 seconds
create_atoms 2 single 74.55792000000001 36.612 73.86485455587392
Created 1 atoms
  using lattice units in orthogonal box = (68.195723 16.754678 62.964501) to (114.37642 59.982022 105.48958)
  create_atoms CPU = 0.000 seconds
create_atoms 1 single 76.2699 36.4563 72.59796790830946
Created 1 atoms
  using lattice units in orthogonal box = (68.195723 16.754678 62.964501) to (114.37642 59.982022 105.48958)
  create_atoms CPU = 0.000 seconds
create_atoms 3 single 72.6618 35.1056 74.18820630372493
Created 1 atoms
  using lattice units in orthogonal box = (68.195723 16.754678 62.964501) to (114.37642 59.982022 105.48958)
  create_atoms CPU = 0.000 seconds
create_atoms 1 single 77.17836 33.6774 73.39986452722063
Created 1 atoms
  using lattice units in orthogonal box = (68.195723 16.754678 62.964501) to (114.37642 59.982022 105.48958)
  create_atoms CPU = 0.000 seconds
create_atoms 5 single 77.43532 33.6528 70.82483736389685
Created 1 atoms
  using lattice units in orthogonal box = (68.195723 16.754678 62.964501) to (114.37642 59.982022 105.48958)
  create_atoms CPU = 0.000 seconds
create_atoms 3 single 79.71966 35.2129 70.77042154727793
Created 1 atoms
  using lattice units in orthogonal box = (68.195723 16.754678 62.964501) to (114.37642 59.982022 105.48958)
  create_atoms CPU = 0.000 seconds
create_atoms 1 single 77.03196 36.686 70.24050578796562
Created 1 atoms
  using lattice units in orthogonal box = (68.195723 16.754678 62.964501) to (114.37642 59.982022 105.48958)
  create_atoms CPU = 0.000 seconds
create_atoms 1 single 79.86512 37.7594 72.06687346704871
Created 1 atoms
  using lattice units in orthogonal box = (68.195723 16.754678 62.964501) to (114.37642 59.982022 105.48958)
  create_atoms CPU = 0.000 seconds
create_atoms 3 single 78.78656000000001 35.4865 72.56201810888251
Created 1 atoms
  using lattice units in orthogonal box = (68.195723 16.754678 62.964501) to (114.37642 59.982022 105.48958)
  create_atoms CPU = 0.000 seconds
create_atoms 3 single 81.54958 35.6021 73.1634405730659
Created 1 atoms
  using lattice units in orthogonal box = (68.195723 16.754678 62.964501) to (114.37642 59.982022 105.48958)
  create_atoms CPU = 0.000 seconds
create_atoms 1 single 79.03384000000001 37.6388 74.42747873925501
Created 1 atoms
  using lattice units in orthogonal box = (68.195723 16.754678 62.964501) to (114.37642 59.982022 105.48958)
  create_atoms CPU = 0.000 seconds
create_atoms 3 single 82.12478 34.035 71.65423656160458
Created 1 atoms
  using lattice units in orthogonal box = (68.195723 16.754678 62.964501) to (114.37642 59.982022 105.48958)
  create_atoms CPU = 0.000 seconds
create_atoms 1 single 84.65438 34.5699 71.22794659025787
Created 1 atoms
  using lattice units in orthogonal box = (68.195723 16.754678 62.964501) to (114.37642 59.982022 105.48958)
  create_atoms CPU = 0.000 seconds
create_atoms 1 single 82.41068 36.6018 71.08159358166188
Created 1 atoms
  using lattice units in orthogonal box = (68.195723 16.754678 62.964501) to (114.37642 59.982022 105.48958)
  create_atoms CPU = 0.000 seconds
create_atoms 5 single 84.55424000000001 35.2075 73.69374922636104
Created 1 atoms
  using lattice units in orthogonal box = (68.195723 16.754678 62.964501) to (114.37642 59.982022 105.48958)
  create_atoms CPU = 0.000 seconds
create_atoms 3 single 85.34958 37.2817 72.60258441260744
Created 1 atoms
  using lattice units in orthogonal box = (68.195723 16.754678 62.964501) to (114.37642 59.982022 105.48958)
  create_atoms CPU = 0.000 seconds
create_atoms 1 single 83.13858 37.9208 73.63000217765043
Created 1 atoms
  using lattice units in orthogonal box = (68.195723 16.754678 62.964501) to (114.37642 59.982022 105.48958)
  create_atoms CPU = 0.000 seconds
create_atoms 1 single 86.64918 36.5758 70.71914888252148
Created 1 atoms
  using lattice units in orthogonal box = (68.195723 16.754678 62.964501) to (114.37642 59.982022 105.48958)
  create_atoms CPU = 0.000 seconds
create_atoms 3 single 87.1387 35.477 73.13721489971346
Created 1 atoms
  using lattice units in orthogonal box = (68.195723 16.754678 62.964501) to (114.37642 59.982022 105.48958)
  create_atoms CPU = 0.000 seconds
create_atoms 1 single 88.14178 33.7033 71.79420504297994
Created 1 atoms
  using lattice units in orthogonal box = (68.195723 16.754678 62.964501) to (114.37642 59.982022 105.48958)
  create_atoms CPU = 0.000 seconds
create_atoms 1 single 89.62198 36.2661 72.9139528939828
Created 1 atoms
  using lattice units in orthogonal box = (68.195723 16.754678 62.964501) to (114.37642 59.982022 105.48958)
  create_atoms CPU = 0.000 seconds
create_atoms 5 single 90.29038 37.4234 70.52859530085959
Created 1 atoms
  using lattice units in orthogonal box = (68.195723 16.754678 62.964501) to (114.37642 59.982022 105.48958)
  create_atoms CPU = 0.000 seconds
create_atoms 2 single 88.07192 37.8451 74.04902361031519
Created 1 atoms
  using lattice units in orthogonal box = (68.195723 16.754678 62.964501) to (114.37642 59.982022 105.48958)
  create_atoms CPU = 0.000 seconds
create_atoms 4 single 91.17718 34.7122 71.46270074498567
Created 1 atoms
  using lattice units in orthogonal box = (68.195723 16.754678 62.964501) to (114.37642 59.982022 105.48958)
  create_atoms CPU = 0.000 seconds
create_atoms 3 single 93.98502 33.8951 72.15920355300858
Created 1 atoms
  using lattice units in orthogonal box = (68.195723 16.754678 62.964501) to (114.37642 59.982022 105.48958)
  create_atoms CPU = 0.000 seconds
create_atoms 1 single 93.47166 36.3191 71.06852985673352
Created 1 atoms
  using lattice units in orthogonal box = (68.195723 16.754678 62.964501) to (114.37642 59.982022 105.48958)
  create_atoms CPU = 0.000 seconds
create_atoms 2 single 94.74282000000001 35.6021 74.05737260744985
Created 1 atoms
  using lattice units in orthogonal box = (68.195723 16.754678 62.964501) to (114.37642 59.982022 105.48958)
  create_atoms CPU = 0.000 seconds
create_atoms 4 single 92.29458 34.6323 74.14469329512893
Created 1 atoms
  using lattice units in orthogonal box = (68.195723 16.754678 62.964501) to (114.37642 59.982022 105.48958)
  create_atoms CPU = 0.000 seconds
create_atoms 4 single 92.4723 37.1684 73.13967048710602
Created 1 atoms
  using lattice units in orthogonal box = (68.195723 16.754678 62.964501) to (114.37642 59.982022 105.48958)
  create_atoms CPU = 0.000 seconds
create_atoms 1 single 96.83234 33.6573 73.20312286532952
Created 1 atoms
  using lattice units in orthogonal box = (68.195723 16.754678 62.964501) to (114.37642 59.982022 105.48958)
  create_atoms CPU = 0.000 seconds
create_atoms 1 single 96.14902000000001 35.3001 70.65491071633238
Created 1 atoms
  using lattice units in orthogonal box = (68.195723 16.754678 62.964501) to (114.37642 59.982022 105.48958)
  create_atoms CPU = 0.000 seconds
create_atoms 1 single 96.5585 36.5891 73.08220974212034
Created 1 atoms
  using lattice units in orthogonal box = (68.195723 16.754678 62.964501) to (114.37642 59.982022 105.48958)
  create_atoms CPU = 0.000 seconds
create_atoms 2 single 98.3262 37.8352 71.99880458452722
Created 1 atoms
  using lattice units in orthogonal box = (68.195723 16.754678 62.964501) to (114.37642 59.982022 105.48958)
  create_atoms CPU = 0.000 seconds
create_atoms 1 single 100.17458 37.0879 70.93622280802292
Created 1 atoms
  using lattice units in orthogonal box = (68.195723 16.754678 62.964501) to (114.37642 59.982022 105.48958)
  create_atoms CPU = 0.000 seconds
create_atoms 1 single 99.30908 35.224 72.85845661891116
Created 1 atoms
  using lattice units in orthogonal box = (68.195723 16.754678 62.964501) to (114.37642 59.982022 105.48958)
  create_atoms CPU = 0.000 seconds
create_atoms 1 single 100.89620000000001 37.682 74.27366074498568
Created 1 atoms
  using lattice units in orthogonal box = (68.195723 16.754678 62.964501) to (114.37642 59.982022 105.48958)
  create_atoms CPU = 0.000 seconds
create_atoms 1 single 101.319 33.8858 71.85196045845272
Created 1 atoms
  using lattice units in orthogonal box = (68.195723 16.754678 62.964501) to (114.37642 59.982022 105.48958)
  create_atoms CPU = 0.000 seconds
create_atoms 2 single 102.57386 36.2935 72.9578587965616
Created 1 atoms
  using lattice units in orthogonal box = (68.195723 16.754678 62.964501) to (114.37642 59.982022 105.48958)
  create_atoms CPU = 0.000 seconds
create_atoms 1 single 71.1409 41.0096 74.14056790830945
Created 1 atoms
  using lattice units in orthogonal box = (68.195723 16.754678 62.964501) to (114.37642 59.982022 105.48958)
  create_atoms CPU = 0.000 seconds
create_atoms 1 single 72.88028 42.625 72.70473684813753
Created 1 atoms
  using lattice units in orthogonal box = (68.195723 16.754678 62.964501) to (114.37642 59.982022 105.48958)
  create_atoms CPU = 0.000 seconds
create_atoms 5 single 71.68858 39.9821 71.8069740974212
Created 1 atoms
  using lattice units in orthogonal box = (68.195723 16.754678 62.964501) to (114.37642 59.982022 105.48958)
  create_atoms CPU = 0.000 seconds
create_atoms 2 single 74.25888 38.9231 72.33688985673352
Created 1 atoms
  using lattice units in orthogonal box = (68.195723 16.754678 62.964501) to (114.37642 59.982022 105.48958)
  create_atoms CPU = 0.000 seconds
create_atoms 1 single 74.26812 41.1907 70.82631071633237
Created 1 atoms
  using lattice units in orthogonal box = (68.195723 16.754678 62.964501) to (114.37642 59.982022 105.48958)
  create_atoms CPU = 0.000 seconds
create_atoms 4 single 75.65082 41.3066 73.59866888252148
Created 1 atoms
  using lattice units in orthogonal box = (68.195723 16.754678 62.964501) to (114.37642 59.982022 105.48958)
  create_atoms CPU = 0.000 seconds
create_atoms 1 single 73.3646 38.8 74.5393553008596
Created 1 atoms
  using lattice units in orthogonal box = (68.195723 16.754678 62.964501) to (114.37642 59.982022 105.48958)
  create_atoms CPU = 0.000 seconds
create_atoms 3 single 76.35866 41.0826 69.85596080229226
Created 1 atoms
  using lattice units in orthogonal box = (68.195723 16.754678 62.964501) to (114.37642 59.982022 105.48958)
  create_atoms CPU = 0.000 seconds
create_atoms 2 single 77.17132 42.2039 72.06441787965616
Created 1 atoms
  using lattice units in orthogonal box = (68.195723 16.754678 62.964501) to (114.37642 59.982022 105.48958)
  create_atoms CPU = 0.000 seconds
create_atoms 1 single 79.43696 40.7561 71.61023243553008
Created 1 atoms
  using lattice units in orthogonal box = (68.195723 16.754678 62.964501) to (114.37642 59.982022 105.48958)
  create_atoms CPU = 0.000 seconds
create_atoms 1 single 76.81402 39.2145 71.82327919770773
Created 1 atoms
  using lattice units in orthogonal box = (68.195723 16.754678 62.964501) to (114.37642 59.982022 105.48958)
  create_atoms CPU = 0.000 seconds
create_atoms 5 single 81.1914 39.6525 74.33996160458452
Created 1 atoms
  using lattice units in orthogonal box = (68.195723 16.754678 62.964501) to (114.37642 59.982022 105.48958)
  create_atoms CPU = 0.000 seconds
create_atoms 4 single 78.43638 40.6155 74.22769214899714
Created 1 atoms
  using lattice units in orthogonal box = (68.195723 16.754678 62.964501) to (114.37642 59.982022 105.48958)
  create_atoms CPU = 0.000 seconds
create_atoms 4 single 80.10226 42.5956 73.72940435530086
Created 1 atoms
  using lattice units in orthogonal box = (68.195723 16.754678 62.964501) to (114.37642 59.982022 105.48958)
  create_atoms CPU = 0.000 seconds
create_atoms 2 single 82.31494 41.3286 73.13731312320917
Created 1 atoms
  using lattice units in orthogonal box = (68.195723 16.754678 62.964501) to (114.37642 59.982022 105.48958)
  create_atoms CPU = 0.000 seconds
create_atoms 2 single 81.57624 39.1731 71.15565409742119
Created 1 atoms
  using lattice units in orthogonal box = (68.195723 16.754678 62.964501) to (114.37642 59.982022 105.48958)
  create_atoms CPU = 0.000 seconds
create_atoms 4 single 84.3377 38.8988 70.73810601719197
Created 1 atoms
  using lattice units in orthogonal box = (68.195723 16.754678 62.964501) to (114.37642 59.982022 105.48958)
  create_atoms CPU = 0.000 seconds
create_atoms 1 single 82.52706 41.4257 70.63487312320918
Created 1 atoms
  using lattice units in orthogonal box = (68.195723 16.754678 62.964501) to (114.37642 59.982022 105.48958)
  create_atoms CPU = 0.000 seconds
create_atoms 3 single 83.80326000000001 43.175 72.5168353008596
Created 1 atoms
  using lattice units in orthogonal box = (68.195723 16.754678 62.964501) to (114.37642 59.982022 105.48958)
  create_atoms CPU = 0.000 seconds
create_atoms 1 single 85.6406 41.9581 71.18256733524355
Created 1 atoms
  using lattice units in orthogonal box = (68.195723 16.754678 62.964501) to (114.37642 59.982022 105.48958)
  create_atoms CPU = 0.000 seconds
create_atoms 1 single 84.81778 40.2049 73.16442280802292
Created 1 atoms
  using lattice units in orthogonal box = (68.195723 16.754678 62.964501) to (114.37642 59.982022 105.48958)
  create_atoms CPU = 0.000 seconds
create_atoms 3 single 86.2878 42.6567 73.62587679083094
Created 1 atoms
  using lattice units in orthogonal box = (68.195723 16.754678 62.964501) to (114.37642 59.982022 105.48958)
  create_atoms CPU = 0.000 seconds
create_atoms 4 single 88.60092 38.898 71.63665455587392
Created 1 atoms
  using lattice units in orthogonal box = (68.195723 16.754678 62.964501) to (114.37642 59.982022 105.48958)
  create_atoms CPU = 0.000 seconds
create_atoms 4 single 88.41402 41.5253 70.881806991404
Created 1 atoms
  using lattice units in orthogonal box = (68.195723 16.754678 62.964501) to (114.37642 59.982022 105.48958)
  create_atoms CPU = 0.000 seconds
create_atoms 1 single 90.74066 38.8503 74.22003071633237
Created 1 atoms
  using lattice units in orthogonal box = (68.195723 16.754678 62.964501) to (114.37642 59.982022 105.48958)
  create_atoms CPU = 0.000 seconds
create_atoms 1 single 87.91524 40.5581 73.5159646991404
Created 1 atoms
  using lattice units in orthogonal box = (68.195723 16.754678 62.964501) to (114.37642 59.982022 105.48958)
  create_atoms CPU = 0.000 seconds
create_atoms 3 single 90.3392 41.5585 73.29830143266474
Created 1 atoms
  using lattice units in orthogonal box = (68.195723 16.754678 62.964501) to (114.37642 59.982022 105.48958)
  create_atoms CPU = 0.000 seconds
create_atoms 2 single 94.5124 38.4776 72.70061146131805
Created 1 atoms
  using lattice units in orthogonal box = (68.195723 16.754678 62.964501) to (114.37642 59.982022 105.48958)
  create_atoms CPU = 0.000 seconds
create_atoms 1 single 91.73062 39.9479 72.11107404011462
Created 1 atoms
  using lattice units in orthogonal box = (68.195723 16.754678 62.964501) to (114.37642 59.982022 105.48958)
  create_atoms CPU = 0.000 seconds
create_atoms 2 single 91.4755 41.6623 70.27842005730658
Created 1 atoms
  using lattice units in orthogonal box = (68.195723 16.754678 62.964501) to (114.37642 59.982022 105.48958)
  create_atoms CPU = 0.000 seconds
create_atoms 1 single 94.85646 41.1203 72.44513214899713
Created 1 atoms
  using lattice units in orthogonal box = (68.195723 16.754678 62.964501) to (114.37642 59.982022 105.48958)
  create_atoms CPU = 0.000 seconds
create_atoms 1 single 92.98192 42.6405 73.74698636103152
Created 1 atoms
  using lattice units in orthogonal box = (68.195723 16.754678 62.964501) to (114.37642 59.982022 105.48958)
  create_atoms CPU = 0.000 seconds
create_atoms 1 single 95.56158 38.5913 70.70687094555873
Created 1 atoms
  using lattice units in orthogonal box = (68.195723 16.754678 62.964501) to (114.37642 59.982022 105.48958)
  create_atoms CPU = 0.000 seconds
create_atoms 1 single 98.42045999999999 39.7139 70.01311839541546
Created 1 atoms
  using lattice units in orthogonal box = (68.195723 16.754678 62.964501) to (114.37642 59.982022 105.48958)
  create_atoms CPU = 0.000 seconds
create_atoms 1 single 99.90428 40.2776 72.81327381088825
Created 1 atoms
  using lattice units in orthogonal box = (68.195723 16.754678 62.964501) to (114.37642 59.982022 105.48958)
  create_atoms CPU = 0.000 seconds
create_atoms 3 single 97.02114 40.9215 71.40415954154727
Created 1 atoms
  using lattice units in orthogonal box = (68.195723 16.754678 62.964501) to (114.37642 59.982022 105.48958)
  create_atoms CPU = 0.000 seconds
create_atoms 1 single 99.26794 42.7653 71.23128618911174
Created 1 atoms
  using lattice units in orthogonal box = (68.195723 16.754678 62.964501) to (114.37642 59.982022 105.48958)
  create_atoms CPU = 0.000 seconds
create_atoms 1 single 97.5359 39.3547 73.7314670487106
Created 1 atoms
  using lattice units in orthogonal box = (68.195723 16.754678 62.964501) to (114.37642 59.982022 105.48958)
  create_atoms CPU = 0.000 seconds
create_atoms 1 single 98.21668000000001 42.5179 73.82546693409742
Created 1 atoms
  using lattice units in orthogonal box = (68.195723 16.754678 62.964501) to (114.37642 59.982022 105.48958)
  create_atoms CPU = 0.000 seconds
create_atoms 3 single 100.93378 42.6566 73.90895690544413
Created 1 atoms
  using lattice units in orthogonal box = (68.195723 16.754678 62.964501) to (114.37642 59.982022 105.48958)
  create_atoms CPU = 0.000 seconds
create_atoms 2 single 102.28386 41.8831 72.54924905444126
Created 1 atoms
  using lattice units in orthogonal box = (68.195723 16.754678 62.964501) to (114.37642 59.982022 105.48958)
  create_atoms CPU = 0.000 seconds
create_atoms 1 single 102.42592 39.0005 72.58205570200573
Created 1 atoms
  using lattice units in orthogonal box = (68.195723 16.754678 62.964501) to (114.37642 59.982022 105.48958)
  create_atoms CPU = 0.000 seconds
create_atoms 1 single 75.62376 46.6588 70.01066280802291
Created 1 atoms
  using lattice units in orthogonal box = (68.195723 16.754678 62.964501) to (114.37642 59.982022 105.48958)
  create_atoms CPU = 0.000 seconds
create_atoms 4 single 72.32598 43.353 69.93188756446992
Created 1 atoms
  using lattice units in orthogonal box = (68.195723 16.754678 62.964501) to (114.37642 59.982022 105.48958)
  create_atoms CPU = 0.000 seconds
create_atoms 2 single 73.25136 45.8356 70.56267885386819
Created 1 atoms
  using lattice units in orthogonal box = (68.195723 16.754678 62.964501) to (114.37642 59.982022 105.48958)
  create_atoms CPU = 0.000 seconds
create_atoms 1 single 75.42328 44.3004 72.27648240687678
Created 1 atoms
  using lattice units in orthogonal box = (68.195723 16.754678 62.964501) to (114.37642 59.982022 105.48958)
  create_atoms CPU = 0.000 seconds
create_atoms 1 single 74.69186 47.9439 72.23395163323782
Created 1 atoms
  using lattice units in orthogonal box = (68.195723 16.754678 62.964501) to (114.37642 59.982022 105.48958)
  create_atoms CPU = 0.000 seconds
create_atoms 1 single 73.22608000000001 45.644 73.18848756446992
Created 1 atoms
  using lattice units in orthogonal box = (68.195723 16.754678 62.964501) to (114.37642 59.982022 105.48958)
  create_atoms CPU = 0.000 seconds
create_atoms 2 single 80.50102 45.9814 70.10093020057306
Created 1 atoms
  using lattice units in orthogonal box = (68.195723 16.754678 62.964501) to (114.37642 59.982022 105.48958)
  create_atoms CPU = 0.000 seconds
create_atoms 4 single 78.11304 44.5104 71.5770328939828
Created 1 atoms
  using lattice units in orthogonal box = (68.195723 16.754678 62.964501) to (114.37642 59.982022 105.48958)
  create_atoms CPU = 0.000 seconds
create_atoms 1 single 80.92066000000001 43.515 71.41231209169054
Created 1 atoms
  using lattice units in orthogonal box = (68.195723 16.754678 62.964501) to (114.37642 59.982022 105.48958)
  create_atoms CPU = 0.000 seconds
create_atoms 2 single 78.3982 47.6133 70.49549398280801
Created 1 atoms
  using lattice units in orthogonal box = (68.195723 16.754678 62.964501) to (114.37642 59.982022 105.48958)
  create_atoms CPU = 0.000 seconds
create_atoms 4 single 77.5354 46.6746 72.66132206303725
Created 1 atoms
  using lattice units in orthogonal box = (68.195723 16.754678 62.964501) to (114.37642 59.982022 105.48958)
  create_atoms CPU = 0.000 seconds
create_atoms 4 single 80.25062000000001 46.2135 72.2962253295129
Created 1 atoms
  using lattice units in orthogonal box = (68.195723 16.754678 62.964501) to (114.37642 59.982022 105.48958)
  create_atoms CPU = 0.000 seconds
create_atoms 1 single 82.32542000000001 44.5059 74.16590957020057
Created 1 atoms
  using lattice units in orthogonal box = (68.195723 16.754678 62.964501) to (114.37642 59.982022 105.48958)
  create_atoms CPU = 0.000 seconds
create_atoms 2 single 85.1864 46.2748 69.8771770773639
Created 1 atoms
  using lattice units in orthogonal box = (68.195723 16.754678 62.964501) to (114.37642 59.982022 105.48958)
  create_atoms CPU = 0.000 seconds
create_atoms 2 single 85.67576000000001 44.7489 71.96923931232091
Created 1 atoms
  using lattice units in orthogonal box = (68.195723 16.754678 62.964501) to (114.37642 59.982022 105.48958)
  create_atoms CPU = 0.000 seconds
create_atoms 5 single 83.11378 45.71 71.92729787965615
Created 1 atoms
  using lattice units in orthogonal box = (68.195723 16.754678 62.964501) to (114.37642 59.982022 105.48958)
  create_atoms CPU = 0.000 seconds
create_atoms 1 single 83.11212 47.4973 74.05098808022922
Created 1 atoms
  using lattice units in orthogonal box = (68.195723 16.754678 62.964501) to (114.37642 59.982022 105.48958)
  create_atoms CPU = 0.000 seconds
create_atoms 1 single 85.94258 47.2321 73.23465260744986
Created 1 atoms
  using lattice units in orthogonal box = (68.195723 16.754678 62.964501) to (114.37642 59.982022 105.48958)
  create_atoms CPU = 0.000 seconds
create_atoms 1 single 83.41572 47.8484 70.35238234957019
Created 1 atoms
  using lattice units in orthogonal box = (68.195723 16.754678 62.964501) to (114.37642 59.982022 105.48958)
  create_atoms CPU = 0.000 seconds
create_atoms 4 single 85.4332 44.8632 74.4175581661891
Created 1 atoms
  using lattice units in orthogonal box = (68.195723 16.754678 62.964501) to (114.37642 59.982022 105.48958)
  create_atoms CPU = 0.000 seconds
create_atoms 1 single 88.36036 43.6332 72.85865306590257
Created 1 atoms
  using lattice units in orthogonal box = (68.195723 16.754678 62.964501) to (114.37642 59.982022 105.48958)
  create_atoms CPU = 0.000 seconds
create_atoms 1 single 90.53892 43.7588 71.50110613180516
Created 1 atoms
  using lattice units in orthogonal box = (68.195723 16.754678 62.964501) to (114.37642 59.982022 105.48958)
  create_atoms CPU = 0.000 seconds
create_atoms 1 single 87.80272000000001 46.4619 71.65187919770773
Created 1 atoms
  using lattice units in orthogonal box = (68.195723 16.754678 62.964501) to (114.37642 59.982022 105.48958)
  create_atoms CPU = 0.000 seconds
create_atoms 1 single 90.48724 47.2915 71.22244607449856
Created 1 atoms
  using lattice units in orthogonal box = (68.195723 16.754678 62.964501) to (114.37642 59.982022 105.48958)
  create_atoms CPU = 0.000 seconds
create_atoms 1 single 90.80398 45.7655 73.63786005730658
Created 1 atoms
  using lattice units in orthogonal box = (68.195723 16.754678 62.964501) to (114.37642 59.982022 105.48958)
  create_atoms CPU = 0.000 seconds
create_atoms 3 single 89.02364 47.5653 74.0841876217765
Created 1 atoms
  using lattice units in orthogonal box = (68.195723 16.754678 62.964501) to (114.37642 59.982022 105.48958)
  create_atoms CPU = 0.000 seconds
create_atoms 1 single 93.33672 43.6428 71.11901673352435
Created 1 atoms
  using lattice units in orthogonal box = (68.195723 16.754678 62.964501) to (114.37642 59.982022 105.48958)
  create_atoms CPU = 0.000 seconds
create_atoms 2 single 95.46566 43.9345 73.61300951289398
Created 1 atoms
  using lattice units in orthogonal box = (68.195723 16.754678 62.964501) to (114.37642 59.982022 105.48958)
  create_atoms CPU = 0.000 seconds
create_atoms 3 single 91.49616 45.6364 69.94485306590258
Created 1 atoms
  using lattice units in orthogonal box = (68.195723 16.754678 62.964501) to (114.37642 59.982022 105.48958)
  create_atoms CPU = 0.000 seconds
create_atoms 1 single 94.54636 46.0682 70.31662899713466
Created 1 atoms
  using lattice units in orthogonal box = (68.195723 16.754678 62.964501) to (114.37642 59.982022 105.48958)
  create_atoms CPU = 0.000 seconds
create_atoms 2 single 94.82388 48.0012 72.29858269340974
Created 1 atoms
  using lattice units in orthogonal box = (68.195723 16.754678 62.964501) to (114.37642 59.982022 105.48958)
  create_atoms CPU = 0.000 seconds
create_atoms 1 single 93.33444 45.9408 72.76946613180516
Created 1 atoms
  using lattice units in orthogonal box = (68.195723 16.754678 62.964501) to (114.37642 59.982022 105.48958)
  create_atoms CPU = 0.000 seconds
create_atoms 2 single 96.27716 45.9422 72.88124446991404
Created 1 atoms
  using lattice units in orthogonal box = (68.195723 16.754678 62.964501) to (114.37642 59.982022 105.48958)
  create_atoms CPU = 0.000 seconds
create_atoms 1 single 96.2385 43.4905 71.23462578796561
Created 1 atoms
  using lattice units in orthogonal box = (68.195723 16.754678 62.964501) to (114.37642 59.982022 105.48958)
  create_atoms CPU = 0.000 seconds
create_atoms 1 single 98.771 45.2538 72.59796790830946
Created 1 atoms
  using lattice units in orthogonal box = (68.195723 16.754678 62.964501) to (114.37642 59.982022 105.48958)
  create_atoms CPU = 0.000 seconds
create_atoms 1 single 97.20374 47.738 71.36879908309454
Created 1 atoms
  using lattice units in orthogonal box = (68.195723 16.754678 62.964501) to (114.37642 59.982022 105.48958)
  create_atoms CPU = 0.000 seconds
create_atoms 1 single 100.77676 47.5014 73.93567369627507
Created 1 atoms
  using lattice units in orthogonal box = (68.195723 16.754678 62.964501) to (114.37642 59.982022 105.48958)
  create_atoms CPU = 0.000 seconds
create_atoms 1 single 101.8353 44.8487 73.04881375358167
Created 1 atoms
  using lattice units in orthogonal box = (68.195723 16.754678 62.964501) to (114.37642 59.982022 105.48958)
  create_atoms CPU = 0.000 seconds
create_atoms 3 single 75.47394 49.6836 74.27719679083094
Created 1 atoms
  using lattice units in orthogonal box = (68.195723 16.754678 62.964501) to (114.37642 59.982022 105.48958)
  create_atoms CPU = 0.000 seconds
create_atoms 4 single 76.68432 51.6698 73.0898711747851
Created 1 atoms
  using lattice units in orthogonal box = (68.195723 16.754678 62.964501) to (114.37642 59.982022 105.48958)
  create_atoms CPU = 0.000 seconds
create_atoms 1 single 78.78642 50.2338 69.90644767908309
Created 1 atoms
  using lattice units in orthogonal box = (68.195723 16.754678 62.964501) to (114.37642 59.982022 105.48958)
  create_atoms CPU = 0.000 seconds
create_atoms 2 single 79.79336 48.8866 72.99567484240687
Created 1 atoms
  using lattice units in orthogonal box = (68.195723 16.754678 62.964501) to (114.37642 59.982022 105.48958)
  create_atoms CPU = 0.000 seconds
create_atoms 1 single 76.89564 49.4007 71.40317730659025
Created 1 atoms
  using lattice units in orthogonal box = (68.195723 16.754678 62.964501) to (114.37642 59.982022 105.48958)
  create_atoms CPU = 0.000 seconds
create_atoms 1 single 79.28664 51.6468 72.41045925501433
Created 1 atoms
  using lattice units in orthogonal box = (68.195723 16.754678 62.964501) to (114.37642 59.982022 105.48958)
  create_atoms CPU = 0.000 seconds
create_atoms 1 single 78.08696 49.0251 74.40419977077363
Created 1 atoms
  using lattice units in orthogonal box = (68.195723 16.754678 62.964501) to (114.37642 59.982022 105.48958)
  create_atoms CPU = 0.000 seconds
create_atoms 1 single 82.24432 50.3793 74.0058052722063
Created 1 atoms
  using lattice units in orthogonal box = (68.195723 16.754678 62.964501) to (114.37642 59.982022 105.48958)
  create_atoms CPU = 0.000 seconds
create_atoms 1 single 81.23904 48.578 71.38500595988539
Created 1 atoms
  using lattice units in orthogonal box = (68.195723 16.754678 62.964501) to (114.37642 59.982022 105.48958)
  create_atoms CPU = 0.000 seconds
create_atoms 1 single 81.70678000000001 51.7656 71.32813455587392
Created 1 atoms
  using lattice units in orthogonal box = (68.195723 16.754678 62.964501) to (114.37642 59.982022 105.48958)
  create_atoms CPU = 0.000 seconds
create_atoms 1 single 84.2193 51.1033 70.14778280802292
Created 1 atoms
  using lattice units in orthogonal box = (68.195723 16.754678 62.964501) to (114.37642 59.982022 105.48958)
  create_atoms CPU = 0.000 seconds
create_atoms 1 single 84.2593 49.911 72.57930544412606
Created 1 atoms
  using lattice units in orthogonal box = (68.195723 16.754678 62.964501) to (114.37642 59.982022 105.48958)
  create_atoms CPU = 0.000 seconds
create_atoms 3 single 84.11458 53.0581 72.86091220630372
Created 1 atoms
  using lattice units in orthogonal box = (68.195723 16.754678 62.964501) to (114.37642 59.982022 105.48958)
  create_atoms CPU = 0.000 seconds
create_atoms 2 single 86.1496 51.9529 72.4928687679083
Created 1 atoms
  using lattice units in orthogonal box = (68.195723 16.754678 62.964501) to (114.37642 59.982022 105.48958)
  create_atoms CPU = 0.000 seconds
create_atoms 2 single 86.36382 48.9744 71.53450212034383
Created 1 atoms
  using lattice units in orthogonal box = (68.195723 16.754678 62.964501) to (114.37642 59.982022 105.48958)
  create_atoms CPU = 0.000 seconds
create_atoms 2 single 87.92986 48.6181 70.15701581661891
Created 1 atoms
  using lattice units in orthogonal box = (68.195723 16.754678 62.964501) to (114.37642 59.982022 105.48958)
  create_atoms CPU = 0.000 seconds
create_atoms 1 single 87.6557 51.1766 71.0092028653295
Created 1 atoms
  using lattice units in orthogonal box = (68.195723 16.754678 62.964501) to (114.37642 59.982022 105.48958)
  create_atoms CPU = 0.000 seconds
create_atoms 1 single 89.88212 49.3802 72.86788607449856
Created 1 atoms
  using lattice units in orthogonal box = (68.195723 16.754678 62.964501) to (114.37642 59.982022 105.48958)
  create_atoms CPU = 0.000 seconds
create_atoms 1 single 90.23638 50.1837 70.31790590257879
Created 1 atoms
  using lattice units in orthogonal box = (68.195723 16.754678 62.964501) to (114.37642 59.982022 105.48958)
  create_atoms CPU = 0.000 seconds
create_atoms 3 single 91.29574 51.9073 72.41095037249283
Created 1 atoms
  using lattice units in orthogonal box = (68.195723 16.754678 62.964501) to (114.37642 59.982022 105.48958)
  create_atoms CPU = 0.000 seconds
create_atoms 1 single 87.55272000000001 50.0215 74.13546028653295
Created 1 atoms
  using lattice units in orthogonal box = (68.195723 16.754678 62.964501) to (114.37642 59.982022 105.48958)
  create_atoms CPU = 0.000 seconds
create_atoms 1 single 89.63694 52.1587 73.90885868194842
Created 1 atoms
  using lattice units in orthogonal box = (68.195723 16.754678 62.964501) to (114.37642 59.982022 105.48958)
  create_atoms CPU = 0.000 seconds
create_atoms 1 single 92.52696 48.3001 69.9954381661891
Created 1 atoms
  using lattice units in orthogonal box = (68.195723 16.754678 62.964501) to (114.37642 59.982022 105.48958)
  create_atoms CPU = 0.000 seconds
create_atoms 1 single 93.39748 50.7228 71.71955518624641
Created 1 atoms
  using lattice units in orthogonal box = (68.195723 16.754678 62.964501) to (114.37642 59.982022 105.48958)
  create_atoms CPU = 0.000 seconds
create_atoms 2 single 92.65982 48.6452 72.97838750716332
Created 1 atoms
  using lattice units in orthogonal box = (68.195723 16.754678 62.964501) to (114.37642 59.982022 105.48958)
  create_atoms CPU = 0.000 seconds
create_atoms 1 single 94.65528 52.6065 73.94382624641834
Created 1 atoms
  using lattice units in orthogonal box = (68.195723 16.754678 62.964501) to (114.37642 59.982022 105.48958)
  create_atoms CPU = 0.000 seconds
create_atoms 1 single 95.38974 49.7156 74.32581742120344
Created 1 atoms
  using lattice units in orthogonal box = (68.195723 16.754678 62.964501) to (114.37642 59.982022 105.48958)
  create_atoms CPU = 0.000 seconds
create_atoms 2 single 97.40264 51.5285 74.05668504297994
Created 1 atoms
  using lattice units in orthogonal box = (68.195723 16.754678 62.964501) to (114.37642 59.982022 105.48958)
  create_atoms CPU = 0.000 seconds
create_atoms 3 single 96.16568000000001 50.0082 72.09673340974211
Created 1 atoms
  using lattice units in orthogonal box = (68.195723 16.754678 62.964501) to (114.37642 59.982022 105.48958)
  create_atoms CPU = 0.000 seconds
create_atoms 1 single 97.96418000000001 48.3009 74.16679358166189
Created 1 atoms
  using lattice units in orthogonal box = (68.195723 16.754678 62.964501) to (114.37642 59.982022 105.48958)
  create_atoms CPU = 0.000 seconds
create_atoms 3 single 79.30080000000001 53.8008 74.19115300859599
Created 1 atoms
  using lattice units in orthogonal box = (68.195723 16.754678 62.964501) to (114.37642 59.982022 105.48958)
  create_atoms CPU = 0.000 seconds
create_atoms 1 single 82.08036 53.3953 74.0353705444126
Created 1 atoms
  using lattice units in orthogonal box = (68.195723 16.754678 62.964501) to (114.37642 59.982022 105.48958)
  create_atoms CPU = 0.000 seconds
create_atoms 1 single 87.35086 53.7632 74.3585258452722
Created 1 atoms
  using lattice units in orthogonal box = (68.195723 16.754678 62.964501) to (114.37642 59.982022 105.48958)
  create_atoms CPU = 0.000 seconds
create_atoms 1 single 80.27136 22.9583 79.2205888825215
Created 1 atoms
  using lattice units in orthogonal box = (68.195723 16.754678 62.964501) to (114.37642 59.982022 105.48958)
  create_atoms CPU = 0.000 seconds
create_atoms 1 single 81.95756 22.0105 77.01498028653295
Created 1 atoms
  using lattice units in orthogonal box = (68.195723 16.754678 62.964501) to (114.37642 59.982022 105.48958)
  create_atoms CPU = 0.000 seconds
create_atoms 5 single 84.19384000000001 20.2186 78.79596871060173
Created 1 atoms
  using lattice units in orthogonal box = (68.195723 16.754678 62.964501) to (114.37642 59.982022 105.48958)
  create_atoms CPU = 0.000 seconds
create_atoms 1 single 83.5537 22.7206 75.29322063037249
Created 1 atoms
  using lattice units in orthogonal box = (68.195723 16.754678 62.964501) to (114.37642 59.982022 105.48958)
  create_atoms CPU = 0.000 seconds
create_atoms 3 single 84.86408 22.4964 77.93857581661891
Created 1 atoms
  using lattice units in orthogonal box = (68.195723 16.754678 62.964501) to (114.37642 59.982022 105.48958)
  create_atoms CPU = 0.000 seconds
create_atoms 1 single 86.795 22.0881 76.43310429799426
Created 1 atoms
  using lattice units in orthogonal box = (68.195723 16.754678 62.964501) to (114.37642 59.982022 105.48958)
  create_atoms CPU = 0.000 seconds
create_atoms 3 single 87.33508 23.2419 78.7017723782235
Created 1 atoms
  using lattice units in orthogonal box = (68.195723 16.754678 62.964501) to (114.37642 59.982022 105.48958)
  create_atoms CPU = 0.000 seconds
create_atoms 1 single 87.11110000000001 20.6711 79.02178452722062
Created 1 atoms
  using lattice units in orthogonal box = (68.195723 16.754678 62.964501) to (114.37642 59.982022 105.48958)
  create_atoms CPU = 0.000 seconds
create_atoms 1 single 89.8494 19.9973 78.599423495702
Created 1 atoms
  using lattice units in orthogonal box = (68.195723 16.754678 62.964501) to (114.37642 59.982022 105.48958)
  create_atoms CPU = 0.000 seconds
create_atoms 2 single 89.47586 21.891 76.13342441260745
Created 1 atoms
  using lattice units in orthogonal box = (68.195723 16.754678 62.964501) to (114.37642 59.982022 105.48958)
  create_atoms CPU = 0.000 seconds
create_atoms 1 single 92.37454 21.4044 78.16782945558738
Created 1 atoms
  using lattice units in orthogonal box = (68.195723 16.754678 62.964501) to (114.37642 59.982022 105.48958)
  create_atoms CPU = 0.000 seconds
create_atoms 1 single 89.95414 22.8857 78.64126670487104
Created 1 atoms
  using lattice units in orthogonal box = (68.195723 16.754678 62.964501) to (114.37642 59.982022 105.48958)
  create_atoms CPU = 0.000 seconds
create_atoms 2 single 92.8923 22.7563 74.60074498567334
Created 1 atoms
  using lattice units in orthogonal box = (68.195723 16.754678 62.964501) to (114.37642 59.982022 105.48958)
  create_atoms CPU = 0.000 seconds
create_atoms 3 single 94.73172 19.695 78.84675025787965
Created 1 atoms
  using lattice units in orthogonal box = (68.195723 16.754678 62.964501) to (114.37642 59.982022 105.48958)
  create_atoms CPU = 0.000 seconds
create_atoms 1 single 94.82784 21.7182 77.1345182808023
Created 1 atoms
  using lattice units in orthogonal box = (68.195723 16.754678 62.964501) to (114.37642 59.982022 105.48958)
  create_atoms CPU = 0.000 seconds
create_atoms 1 single 96.26608 23.2778 75.11612366762176
Created 1 atoms
  using lattice units in orthogonal box = (68.195723 16.754678 62.964501) to (114.37642 59.982022 105.48958)
  create_atoms CPU = 0.000 seconds
create_atoms 5 single 96.71972 23.2256 79.25339553008597
Created 1 atoms
  using lattice units in orthogonal box = (68.195723 16.754678 62.964501) to (114.37642 59.982022 105.48958)
  create_atoms CPU = 0.000 seconds
create_atoms 1 single 98.15526000000001 22.0763 77.62052813753581
Created 1 atoms
  using lattice units in orthogonal box = (68.195723 16.754678 62.964501) to (114.37642 59.982022 105.48958)
  create_atoms CPU = 0.000 seconds
create_atoms 1 single 77.13218 24.9875 75.30765948424069
Created 1 atoms
  using lattice units in orthogonal box = (68.195723 16.754678 62.964501) to (114.37642 59.982022 105.48958)
  create_atoms CPU = 0.000 seconds
create_atoms 1 single 73.90598 28.2806 76.61796091690543
Created 1 atoms
  using lattice units in orthogonal box = (68.195723 16.754678 62.964501) to (114.37642 59.982022 105.48958)
  create_atoms CPU = 0.000 seconds
create_atoms 3 single 75.99672 27.4364 75.65301329512893
Created 1 atoms
  using lattice units in orthogonal box = (68.195723 16.754678 62.964501) to (114.37642 59.982022 105.48958)
  create_atoms CPU = 0.000 seconds
create_atoms 3 single 76.57224000000001 27.9242 78.33284492836675
Created 1 atoms
  using lattice units in orthogonal box = (68.195723 16.754678 62.964501) to (114.37642 59.982022 105.48958)
  create_atoms CPU = 0.000 seconds
create_atoms 2 single 78.49736 25.1478 78.0753029226361
Created 1 atoms
  using lattice units in orthogonal box = (68.195723 16.754678 62.964501) to (114.37642 59.982022 105.48958)
  create_atoms CPU = 0.000 seconds
create_atoms 1 single 78.71588 27.7161 77.2382422922636
Created 1 atoms
  using lattice units in orthogonal box = (68.195723 16.754678 62.964501) to (114.37642 59.982022 105.48958)
  create_atoms CPU = 0.000 seconds
create_atoms 1 single 75.67304 25.5586 77.18510338108882
Created 1 atoms
  using lattice units in orthogonal box = (68.195723 16.754678 62.964501) to (114.37642 59.982022 105.48958)
  create_atoms CPU = 0.000 seconds
create_atoms 1 single 79.31008 26.6962 74.81113971346704
Created 1 atoms
  using lattice units in orthogonal box = (68.195723 16.754678 62.964501) to (114.37642 59.982022 105.48958)
  create_atoms CPU = 0.000 seconds
create_atoms 1 single 80.21516 24.4049 76.8072375931232
Created 1 atoms
  using lattice units in orthogonal box = (68.195723 16.754678 62.964501) to (114.37642 59.982022 105.48958)
  create_atoms CPU = 0.000 seconds
create_atoms 2 single 82.607 25.1159 76.13352263610314
Created 1 atoms
  using lattice units in orthogonal box = (68.195723 16.754678 62.964501) to (114.37642 59.982022 105.48958)
  create_atoms CPU = 0.000 seconds
create_atoms 1 single 83.37270000000001 24.3133 78.74430315186245
Created 1 atoms
  using lattice units in orthogonal box = (68.195723 16.754678 62.964501) to (114.37642 59.982022 105.48958)
  create_atoms CPU = 0.000 seconds
create_atoms 1 single 81.78641999999999 27.061 77.50894624641833
Created 1 atoms
  using lattice units in orthogonal box = (68.195723 16.754678 62.964501) to (114.37642 59.982022 105.48958)
  create_atoms CPU = 0.000 seconds
create_atoms 1 single 82.21602 27.5635 74.87753879656161
Created 1 atoms
  using lattice units in orthogonal box = (68.195723 16.754678 62.964501) to (114.37642 59.982022 105.48958)
  create_atoms CPU = 0.000 seconds
create_atoms 2 single 81.1316 25.7353 79.28158567335244
Created 1 atoms
  using lattice units in orthogonal box = (68.195723 16.754678 62.964501) to (114.37642 59.982022 105.48958)
  create_atoms CPU = 0.000 seconds
create_atoms 1 single 85.516 24.8861 77.0121318051576
Created 1 atoms
  using lattice units in orthogonal box = (68.195723 16.754678 62.964501) to (114.37642 59.982022 105.48958)
  create_atoms CPU = 0.000 seconds
create_atoms 1 single 84.97008000000001 27.28 78.45916034383954
Created 1 atoms
  using lattice units in orthogonal box = (68.195723 16.754678 62.964501) to (114.37642 59.982022 105.48958)
  create_atoms CPU = 0.000 seconds
create_atoms 4 single 85.10106 26.8071 74.94000893982808
Created 1 atoms
  using lattice units in orthogonal box = (68.195723 16.754678 62.964501) to (114.37642 59.982022 105.48958)
  create_atoms CPU = 0.000 seconds
[...]
  create_atoms CPU = 0.000 seconds
create_atoms 1 single 108.4328 44.3799 99.13009856733524
Created 1 atoms
  using lattice units in orthogonal box = (68.195723 16.754678 62.964501) to (114.37642 59.982022 105.48958)
  create_atoms CPU = 0.000 seconds
create_atoms 1 single 96.648 48.5367 100.12019140401145
Created 1 atoms
  using lattice units in orthogonal box = (68.195723 16.754678 62.964501) to (114.37642 59.982022 105.48958)
  create_atoms CPU = 0.000 seconds
create_atoms 1 single 101.5605 49.2028 99.01124813753582
Created 1 atoms
  using lattice units in orthogonal box = (68.195723 16.754678 62.964501) to (114.37642 59.982022 105.48958)
  create_atoms CPU = 0.000 seconds
group surface id  1 2 3 4 5 6 7 8 9 10 11 12 13 14 15 16 19 20 21 22 23 24 25 26 31 33 34 35 38 40 42 44 46 47 48 49 50 51 52 53 57 58 60 66 67 69 72 74 75 78 79 80 81 82 83 84 85 87 88 91 93 94 95 97 99 100 101 102 103 104 105 106 107 108 109 110 111 112 113 115 116 118 119 121 126 127 129 130 131 132 133 134 136 137 158 162 164 165 167 170 171 172 173 174 175 176 179 210 213 214 215 216 217 248 251 255 256 257 258 259 261 262 266 286 291 292 293 294 295 296 297 299 300 304 305 307 308 310 311 313 314 316 317 318 320 322 323 324 325 326 327 328 329 330 331 332 333 335 336 337 338 340 341 342 343 345 346 347 348 350 352 354 381 382 383 384 387 388 389 390 431 432 433 435 436 437 483 484 485 487 488 489 491 529 530 531 532 533 534 538 539 541 576 577 578 581 583 584 585 586 615 616 618 619 620 621 622 623 625 626 629 630 632 633 634 635 636 637 638 639 640 641 643 644 645 649 651 652 654 657 660 661 663 664 665 666 667 668 671 673 702 707 708 709 710 711 712 713 762 763 766 767 769 771 813 816 817 818 820 864 865 868 871 875 876 877 878 922 923 924 925 926 927 929 930 962 963 964 965 966 967 968 970 971 973 976 977 979 981 983 987 988 989 990 991 992 993 994 995 996 997 1001 1002 1004 1006 1007 1008 1012 1013 1014 1016 1017 1019 1020 1021 1022 1023 1057 1058 1063 1064 1065 1067 1068 1108 1109 1111 1112 1114 1115 1117 1120 1165 1169 1170 1171 1172 1175 1217 1218 1221 1223 1224 1227 1270 1271 1273 1275 1276 1277 1280 1282 1316 1317 1318 1319 1320 1321 1322 1323 1325 1326 1331 1332 1333 1334 1335 1337 1340 1342 1343 1344 1345 1346 1347 1348 1349 1350 1351 1352 1353 1354 1357 1358 1359 1360 1362 1363 1364 1365 1366 1367 1368 1369 1370 1399 1400 1401 1404 1405 1406 1407 1408 1411 1452 1454 1455 1457 1458 1459 1460 1499 1500 1504 1505 1506 1507 1508 1510 1511 1512 1553 1555 1556 1557 1558 1560 1561 1562 1567 1568 1604 1605 1606 1607 1608 1609 1610 1612 1615 1637 1640 1641 1642 1643 1644 1645 1647 1648 1649 1650 1651 1652 1653 1654 1655 1656 1657 1658 1659 1660 1661 1662 1663 1664 1665 1667 1669 1670 1672 1673 1676 1682 1684 1685 1686 1687 1688 1690 1691 1692 1693 1694 1695 1696 1699 1720 1726 1727 1728 1729 1730 1731 1733 1766 1770 1771 1772 1773 1774 1775 1778 1811 1812 1813 1814 1815 1816 1817 1818 1819 1823 1825 1826 1846 1851 1852 1853 1854 1855 1857 1858 1860 1862 1863 1864 1865 1868 1869 1870 1871 1872 1873 1874 1875 1876 1877 1878 1879 1880 1881 1882 1883 1884 1885 1886 1887 1888 1891 1892 1893 1894 1897 1898 1899 1900 1901 1902 1903 1904 1906 1908 1911 1914 1915 1916 1917 1923 1924 1925 1928 1929 1930 1932 1933 1934 1935 1936 1937 1939 1940 1941 1946 1948 1949 1954 1956 1958 1961 1962 1964 1965 1966 1967 1970 1971 1972 1973 1974 1976 1978 1979 1980 1981 1982 1983 1984 1985 
618 atoms in group surface
            fix freeze surface setforce 0 0 0 
            minimize 0 1e-4 100000 100000
Neighbor list info ...
  update: every = 1 steps, delay = 0 steps, check = yes
  max neighbors/atom: 2000, page size: 100000
  master list distance cutoff = 9.1553683
  ghost atom cutoff = 9.1553683
  binsize = 4.5776842, bins = 11 10 10
  1 neighbor lists, perpetual/occasional/extra = 1 0 0
  (1) pair eam/alloy, perpetual
      attributes: half, newton on
      pair build: half/bin/atomonly/newton
      stencil: half/bin/3d
      bin: standard
Per MPI rank memory allocation (min/avg/max) = 4.075 | 4.376 | 4.483 Mbytes
   Step          Temp          E_pair         E_mol          TotEng         Press          Volume    
         0   0             -9833.3465      0             -9833.3465      58911.78       63745.006    
       576   0             -10377.971      0             -10377.971      25101.87       63745.006    
Loop time of 0.169329 on 192 procs for 576 steps with 1985 atoms

99.8% CPU use with 192 MPI tasks x 1 OpenMP threads

Minimization stats:
  Stopping criterion = linesearch alpha is zero
  Energy initial, next-to-last, final = 
     -9833.34646472639  -10377.9710972261  -10377.9710972261
  Force two-norm initial, final = 74.04564 0.032719712
  Force max component initial, final = 4.8459107 0.0095057282
  Final line search alpha, max atom move = 7.6293945e-06 7.2522951e-08
  Iterations, force evaluations = 576 1084

MPI task timing breakdown:
Section |  min time  |  avg time  |  max time  |%varavg| %total
---------------------------------------------------------------
Pair    | 0.052971   | 0.071702   | 0.10757    |   5.8 | 42.35
Neigh   | 2.1058e-05 | 0.0004056  | 0.0011425  |   0.0 |  0.24
Comm    | 0.012267   | 0.059817   | 0.085215   |   6.7 | 35.33
Output  | 0          | 0          | 0          |   0.0 |  0.00
Modify  | 5.2917e-05 | 7.9837e-05 | 0.00013277 |   0.0 |  0.05
Other   |            | 0.03732    |            |       | 22.04

Nlocal:        10.3385 ave          24 max           0 min
Histogram: 53 15 13 6 5 21 15 39 20 5
Nghost:        373.724 ave         856 max          45 min
Histogram: 15 26 33 29 33 17 10 17 0 12
Neighs:        708.255 ave        2168 max           0 min
Histogram: 71 15 16 14 17 14 12 19 9 5

Total # of neighbors = 135985
Ave neighs/atom = 68.506297
Neighbor list builds = 22
Dangerous builds = 0
            unfix freeze
            compute force all property/atom fx fy fz
            dump fcal all custom 1 dump.force id type x y z fx fy fz
            run 1 
WARNING: No fixes with time integration, atoms won't move (src/verlet.cpp:60)
Per MPI rank memory allocation (min/avg/max) = 2.95 | 3.251 | 3.358 Mbytes
   Step          Temp          E_pair         E_mol          TotEng         Press          Volume    
       576   0             -10377.971      0             -10377.971      25101.87       63745.006    
       577   0             -10377.971      0             -10377.971      25101.87       63745.006    
Loop time of 0.00119477 on 192 procs for 1 steps with 1985 atoms

Performance: 72.315 ns/day, 0.332 hours/ns, 836.982 timesteps/s, 1.661 Matom-step/s
99.8% CPU use with 192 MPI tasks x 1 OpenMP threads

MPI task timing breakdown:
Section |  min time  |  avg time  |  max time  |%varavg| %total
---------------------------------------------------------------
Pair    | 5.9024e-05 | 8.5225e-05 | 0.00014476 |   0.0 |  7.13
Neigh   | 0          | 0          | 0          |   0.0 |  0.00
Comm    | 1.3073e-05 | 7.4867e-05 | 0.00010951 |   0.0 |  6.27
Output  | 0.00015074 | 0.00054509 | 0.0010791  |   0.0 | 45.62
Modify  | 1.77e-07   | 2.7874e-07 | 6.17e-07   |   0.0 |  0.02
Other   |            | 0.0004893  |            |       | 40.95

Nlocal:        10.3385 ave          24 max           0 min
Histogram: 53 15 13 6 5 21 14 42 17 6
Nghost:        373.104 ave         856 max          45 min
Histogram: 15 26 33 29 33 17 10 17 0 12
Neighs:        708.474 ave        2175 max           0 min
Histogram: 71 15 16 15 16 13 14 19 8 5

Total # of neighbors = 136027
Ave neighs/atom = 68.527456
Neighbor list builds = 0
Dangerous builds = 0
            
Total wall time: 0:00:00
                                                                                                                                                                                                                                                                                                                                                                                                                                                                                                                                                                                                                                                                                                                                                                                                                                                                                                                                                                                                                                                                                                                                                                                                                                                                                                                                                                                                                                                                                                                                                                                                                                                                                                                                                                                                                                                                                                                                                                                                                                                                                                                                                                                                                                                                                                                                                                                                                                                                                                                                                                                                                                                                                                                                                                                                                                                                                                                                                                                                                                                                                                                                                                                                                                                                                                                                                                                                                                                                                                                                                                                                                                                                                                                                                                                                                                                                                                                                                                                                                                                                                                                                                                                                                                                                                                                                                                                                                                                                                                                                                                                                                                                                                                                                                                                                                                                                                                                                                                                                                                                                                                                                                                                                                                                                                                                                                                                                                                                                                                                                                                                                                                                                                                                                                                                                                                                                                                                                                                                                                                                                                                                                                                                                                                                                                                                                                                                                                                                                                                                                                                                                                                                                                                                                                                                                                                                                                                                                                                                                                                                                                                                                                                                                                                                                                                                                                                                                                                                                                                                                                                                                                                                                                                                                                                                                                                                                                                                                                                                                                                                                                                                                                                                                                                                                                                                                                                                                                                                                                                                                                                                                                                                                                                                                                                                                                                                                                                                                                                                                                                                                                                                                                                                                                                                                                                                                                                                                                                                                                                                                                                                                                                                                                                                                                                                                                                                                                                                                                                                                                                                                                                                                                                                                                                                                                                                                                                                                                                                                                                                                                                                                                                                                                                                                                                                                                                                                                                                                                                                                                                                                                                                                                                                                                                                                                                                                                                                                                                                                                                                                                                                                                                                                                                                                                                                                                                                                                                                                                                                                                                                                                                                                                                                                                                                                                                                                                                                                                                                                                                                                                                                                                                                                                                                                                                            
Total wall time: 0:00:00
