# LAMMPS data file written by OVITO Pro 3.7.7
1742 atoms
5 atom types
0.0 250.0 xlo xhi
0.0 90.51 ylo yhi
0.0 181.02 zlo zhi

Atoms  # atomic

1 1 39.8068 40.2055 80.1322
2 4 50.8217 39.8271 79.3004
3 1 38.1168 42.84 79.8274
4 4 36.0335 44.1506 78.2593
5 1 43.11 43.1974 77.1228
6 5 42.2632 40.4838 78.404
7 5 40.752 44.597 79.0178
8 1 43.3456 42.8985 79.9637
9 4 40.1614 42.2208 77.7853
10 1 45.1255 40.9526 78.4506
11 1 46.2078 43.0982 76.7077
12 4 48.2613 41.0291 77.7159
13 2 46.9338 42.4278 79.7792
14 1 45.6667 44.7067 79.0891
15 1 48.7377 44.0084 77.9736
16 1 51.7545 44.0844 78.9259
17 1 49.6834 42.2003 80.1854
18 3 33.55 49.6874 80.099
19 2 37.1303 45.4636 80.1868
20 1 35.7385 47.8426 79.835
21 5 37.6773 48.7404 77.6904
22 4 38.5602 45.895 77.8954
23 4 38.8695 47.4537 80.0922
24 3 43.1976 45.5233 78.6325
25 4 41.4645 45.7502 76.4697
26 1 43.1361 48.1738 75.9955
27 1 41.5428 47.6534 78.7909
28 2 42.9274 49.8813 78.0368
29 1 44.7582 47.7305 78.5074
30 1 44.7266 45.6543 76.2837
31 1 46.4792 48.0708 75.7581
32 5 47.247 48.9931 78.5382
33 2 47.2982 46.3077 77.6362
34 2 47.2526 46.9568 80.1364
35 1 49.3893 48.1798 76.8508
36 1 51.7763 48.7797 78.8352
37 1 49.8258 46.4769 79.2276
38 2 53.1098 46.4209 78.3157
39 1 54.7664 48.0077 80.1134
40 1 35.0976 53.3412 78.5545
41 1 37.8134 51.8205 77.1745
42 1 37.8263 53.4254 79.7582
43 1 36.1037 50.7479 79.56
44 1 39.028 50.2779 79.7549
45 1 40.4296 49.9309 77.0214
46 3 40.0832 52.3394 78.5077
47 1 43.0583 51.1214 75.5679
48 1 40.5738 52.7896 75.9229
49 1 40.916 54.5374 79.6583
50 4 43.4753 54.2763 75.4689
51 4 42.5909 52.5911 77.9991
52 3 45.179 49.951 76.9218
53 1 45.3172 52.5795 76.9922
54 2 47.7878 53.4569 77.3472
55 1 47.8163 50.8324 76.3975
56 5 47.6961 51.5709 79.2735
57 1 44.8949 50.9238 79.4435
58 1 46.2735 54.0588 79.7112
59 3 49.7716 50.446 78.2646
60 1 50.3068 53.1208 77.9982
61 4 52.2451 51.1431 77.3646
62 3 52.7434 52.8413 79.3316
63 2 53.8478 50.5376 79.6483
64 4 54.5328 54.5015 79.9985
65 1 38.8914 54.8387 77.3389
66 3 38.6286 56.002 79.8573
67 1 36.3303 56.0221 78.6527
68 1 38.0233 58.5101 79.5554
69 2 34.9675 58.0851 79.911
70 2 41.7081 55.1 77.1518
71 1 40.5358 57.3693 78.2221
72 1 43.5981 57.1607 77.0959
73 1 42.7584 59.2766 79.0443
74 5 43.0095 56.5254 79.8443
75 2 44.0255 54.7092 78.3166
76 1 46.1054 55.4917 76.6654
77 1 45.8954 57.0348 79.1442
78 1 48.4096 58.787 78.8016
79 2 52.4337 55.0299 77.9888
80 1 48.7567 55.7572 78.4939
81 1 51.193 57.4314 78.312
82 3 45.5701 59.6843 78.7432
83 1 51.9916 59.8018 79.8895
84 1 45.2392 34.8024 84.2035
85 1 33.724 39.7342 84.7456
86 3 34.4081 40.3153 82.2099
87 1 38.984 37.9236 82.1577
88 2 36.0822 38.5438 83.62
89 1 38.5753 39.5345 84.5059
90 1 37.0491 40.1806 81.3686
91 2 42.6876 40.4313 80.9441
92 3 41.5473 37.8698 82.914
93 4 41.7074 37.9603 80.2884
94 1 43.729 36.5058 82.2271
95 1 43.7006 39.3364 83.3749
96 1 40.2566 36.4591 84.7335
97 1 44.6158 38.7186 80.3533
98 1 46.6669 36.901 81.4359
99 2 45.7308 37.5026 83.9465
100 1 48.0264 35.7495 83.8328
101 3 46.1452 39.5133 82.515
102 1 47.6309 39.7097 80.2518
103 1 48.4583 38.6551 83.1163
104 4 49.7478 37.5104 80.8312
105 2 50.2087 40.2296 82.0143
106 1 50.9776 37.1568 83.708
107 5 52.3683 38.9253 81.5426
108 1 51.8154 39.8837 84.4533
109 1 53.9482 37.9226 83.7544
110 1 54.9344 40.1597 82.0502
111 3 54.7657 40.2761 84.8119
112 2 31.5839 40.9317 83.4989
113 1 33.6878 42.6688 83.5049
114 4 32.2503 43.4416 81.277
115 1 34.9609 42.2542 80.4144
116 1 36.4427 43.8201 82.2976
117 1 36.2626 41.3684 84.0356
118 5 38.7307 42.1796 82.6457
119 1 38.6898 44.6283 84.4717
120 2 40.8269 42.5968 80.828
121 1 40.9332 40.501 82.8772
122 1 41.2852 43.551 83.3327
123 3 43.2787 42.1437 82.6034
124 1 39.4041 45.0821 81.5874
125 2 43.6353 44.7804 83.8485
126 2 45.2011 41.2775 81.2113
127 1 45.3243 41.6269 84.1429
128 1 45.3629 43.8982 81.978
129 1 47.769 41.8532 82.4708
130 4 46.8374 43.9376 84.5952
131 5 48.0626 44.5861 80.7908
132 1 52.7091 41.9665 80.8542
133 3 48.7814 44.4528 83.2192
134 1 50.6796 42.5328 83.224
135 2 50.6517 44.4626 81.3936
136 1 54.5949 44.6061 80.345
137 3 53.2765 41.6913 83.3981
138 1 53.0647 44.3633 82.926
139 3 55.207 42.8135 82.2145
140 1 57.0736 41.4582 83.6224
141 1 57.6371 44.0886 82.2039
142 3 55.625 44.8896 83.5427
143 4 29.5138 49.5995 83.3047
144 1 34.3917 45.229 80.4147
145 4 31.4666 45.5173 83.3682
146 2 34.0856 45.2575 83.0696
147 4 31.6519 48.183 84.2988
148 4 33.0461 47.5328 81.8075
149 1 34.4089 47.362 84.7314
150 1 34.981 49.6953 82.3877
151 1 36.3573 46.7333 82.5715
152 1 39.0333 47.5329 83.4813
153 2 37.5926 49.0542 81.742
154 2 36.7037 48.9782 84.2715
155 4 41.1971 47.8848 81.6296
156 1 42.5035 45.4025 81.2878
157 3 41.3155 46.1514 83.9188
158 3 43.4546 48.721 80.5983
159 1 43.783 47.5298 83.1221
160 2 41.5678 48.7457 84.4232
161 3 44.8339 46.5337 80.8587
162 1 46.695 46.4084 82.7773
163 3 47.8789 48.8533 83.3439
164 1 46.067 49.1115 81.4458
165 2 45.9046 48.3977 84.6362
166 5 49.2 49.1014 80.5504
167 1 49.6383 46.9069 82.281
168 3 50.8812 45.1986 84.1343
169 1 52.3541 46.4758 80.9923
170 2 51.901 47.3659 83.7322
171 1 52.2562 49.3021 81.7081
172 1 50.2296 49.7527 83.7342
173 1 54.4782 47.1794 83.2003
174 3 54.8086 49.6476 82.2884
175 3 57.4484 46.5371 83.6473
176 3 56.3335 46.2734 81.4587
177 1 56.4339 48.8421 84.6776
178 1 57.2539 48.7993 81.8173
179 1 59.3283 48.5335 83.962
180 4 59.8609 45.5717 83.8898
181 5 29.9341 52.4947 83.5296
182 1 32.1437 50.6011 82.4875
183 2 34.1309 52.0735 80.8143
184 1 32.2052 53.5236 81.9522
185 2 32.3947 52.5322 84.4869
186 2 34.6143 52.363 83.2124
187 2 35.7808 53.8568 81.401
188 1 37.3084 51.6767 82.2201
189 1 36.7841 54.1443 83.9931
190 1 39.4282 52.7191 84.1622
191 2 39.8889 52.5738 81.2123
192 1 40.1828 50.2744 82.6172
193 1 43.5298 50.5243 82.7779
194 1 43.4904 53.401 80.7129
195 1 41.8612 50.8983 80.234
196 3 41.7924 52.6203 82.7091
197 1 44.1995 53.5738 83.7863
198 2 45.6452 52.1153 81.718
199 1 48.2328 51.3548 82.1016
200 4 47.0113 53.8909 83.0037
201 1 46.1236 51.0768 84.2547
202 3 48.8343 53.5921 80.3138
203 4 49.8786 53.7368 82.6914
204 1 50.783 51.6185 80.5684
205 2 51.5449 52.0678 83.571
206 1 53.5485 52.073 81.8654
207 3 56.1177 51.2279 81.0107
208 2 55.777 51.256 83.8477
209 1 55.929 53.5728 82.4303
210 1 53.3496 50.0277 84.5063
211 1 54.0129 52.9498 84.999
212 1 58.2337 51.5588 82.9256
213 4 28.9486 54.9404 84.7481
214 1 34.1711 55.2059 83.4142
215 1 33.8582 55.4841 80.3837
216 5 30.43 57.5876 84.5127
217 4 31.5501 56.4336 82.1591
218 1 33.9163 58.192 82.5342
219 4 31.5845 54.9343 84.7434
220 1 39.0935 54.9625 82.217
221 1 36.4975 56.472 81.7497
222 3 38.1701 56.3594 84.2501
223 1 38.8728 58.2191 82.3683
224 1 36.4451 58.4124 84.3094
225 2 36.391 59.2897 81.6392
226 3 40.5646 57.0109 80.8243
227 1 41.9891 55.2984 82.4626
228 1 42.4237 58.2467 82.1428
229 3 43.4144 56.7319 84.4127
230 1 40.7266 57.2588 84.4345
231 1 45.2377 58.7356 83.5036
232 3 44.6532 58.7435 80.8585
233 1 44.9679 56.0243 81.9019
234 1 48.1336 55.9925 81.443
235 4 47.1407 58.5758 81.3886
236 4 46.0044 56.0838 84.5689
237 4 48.6495 55.5232 84.5493
238 3 50.0782 57.6475 80.6725
239 1 48.8342 58.291 83.7198
240 2 50.6188 56.2375 82.7389
241 1 51.1683 54.8928 80.3957
242 1 51.5685 58.7752 82.5851
243 1 51.8305 57.0962 84.9949
244 1 53.1459 57.0791 80.6685
245 1 53.09 54.9469 82.9046
246 3 54.0384 57.403 83.5006
247 2 55.5893 56.2763 81.8653
248 1 57.0739 57.5784 83.6586
249 2 55.5212 55.3222 84.4807
250 1 58.3285 54.7892 83.2347
251 1 32.2039 59.9467 84.4819
252 1 34.9407 61.035 83.1913
253 1 38.1188 61.1328 82.6804
254 2 38.7701 63.6676 83.702
255 1 36.1298 63.7494 84.2278
256 3 38.9593 59.3944 84.8903
257 2 40.4238 59.7244 80.5878
258 3 40.6707 60.1163 83.1114
259 1 40.6789 62.5968 82.0675
260 1 43.0816 61.0127 81.4461
261 3 42.4541 62.216 84.0699
262 1 43.493 63.8999 82.3266
263 1 42.721 59.7385 84.6794
264 1 46.3343 63.6456 83.0506
265 2 44.742 61.4949 83.435
266 1 46.1003 61.2581 80.9797
267 5 47.349 60.7811 83.5426
268 1 49.3528 60.3889 81.1855
269 2 48.7734 62.8471 82.2176
270 2 52.3567 61.4364 82.2635
271 1 50.2128 61.2496 84.0318
272 1 52.5868 62.8241 84.9157
273 1 53.2024 59.8621 84.6815
274 1 54.5887 59.4488 81.9686
275 3 54.6875 61.8025 83.5412
276 3 55.9346 59.8337 84.3642
277 1 41.3055 64.6297 84.4045
278 2 44.3834 65.9576 84.0743
279 1 49.7465 64.2095 84.4616
280 2 37.1346 34.4082 87.5102
281 3 39.3699 35.5514 87.1002
282 2 41.8131 34.745 86.4325
283 4 39.8261 33.0679 87.7531
284 1 41.5474 34.9823 89.1855
285 1 42.765 32.3484 88.4864
286 1 44.4759 34.3338 87.0861
287 5 47.3297 34.2471 86.3512
288 3 44.0513 34.3947 89.7782
289 1 45.7644 32.3448 89.1784
290 1 46.5986 35.2496 89.3913
291 5 49.1384 33.5518 88.3185
292 1 51.9376 35.3134 88.1658
293 1 50.2311 35.1568 85.7803
294 2 29.1934 39.9086 88.1549
295 1 34.4864 37.0996 85.9278
296 2 33.7482 39.3342 87.467
297 1 33.3159 36.8486 88.7278
298 3 31.5974 38.9076 88.8675
299 1 35.1648 39.152 89.6426
300 1 37.3643 36.6334 85.2579
301 1 36.3227 39.4994 86.5245
302 1 36.4033 36.861 88.2087
303 2 38.8761 38.0389 86.9531
304 2 37.7631 39.1248 88.9792
305 1 39.1075 36.7061 89.4373
306 1 41.4555 37.4549 87.6144
307 1 43.3151 36.8462 85.2918
308 4 41.2812 39.1086 85.3494
309 2 41.8709 40.1933 87.5993
310 1 40.3213 39.3721 89.7559
311 1 43.5047 39.128 89.3782
312 2 43.9286 36.6294 88.3038
313 1 44.4293 39.4349 86.5336
314 2 46.6745 39.4375 85.0936
315 2 45.9723 37.9045 89.1382
316 1 46.2188 36.9401 86.5671
317 1 48.0038 39.3917 87.6071
318 2 45.8564 40.369 88.8087
319 2 48.7125 37.6923 85.5724
320 1 48.9255 36.4848 88.1075
321 3 50.1026 39.7052 89.2239
322 1 50.9555 38.2296 86.9217
323 2 53.3971 39.4883 86.6599
324 2 53.1127 37.7728 88.4553
325 2 53.0396 36.728 86.0345
326 1 55.3691 39.3371 88.6624
327 1 55.6043 37.9205 86.1427
328 3 57.5155 37.8155 88.071
329 1 55.1449 36.1602 88.6888
330 1 58.3017 40.2112 89.2289
331 1 29.2688 42.6572 87.3882
332 4 27.4143 44.4604 88.4145
333 5 30.9582 41.4476 89.4025
334 1 31.0661 43.1801 85.0176
335 1 31.5896 40.7387 86.6621
336 2 33.2429 44.6651 85.4461
337 1 34.405 42.2307 86.5158
338 1 32.1352 43.714 87.8838
339 2 33.5538 41.394 88.9754
340 3 34.4365 43.8087 89.2922
341 1 35.8655 44.5351 85.1727
342 3 36.2949 44.1468 87.7796
343 3 37.3362 42.3805 86.1364
344 1 36.4865 41.6612 88.649
345 1 38.9387 44.0776 87.3895
346 1 39.1663 40.6782 87.2182
347 2 39.7728 42.1677 85.1483
348 3 41.0676 42.4293 87.7988
349 1 42.555 41.665 85.3121
350 1 43.8021 42.2252 88.0359
351 1 41.7297 44.3846 86.2264
352 1 39.2412 42.2207 89.775
353 3 42.0733 44.0984 89.2153
354 2 44.4297 43.6907 85.9131
355 4 47.1899 45.0695 87.1437
356 1 46.6022 41.985 86.7644
357 1 46.3341 43.4973 89.4227
358 1 49.4776 43.5846 85.8558
359 2 48.8534 42.2403 88.2037
360 1 48.9994 40.7692 85.1075
361 1 49.5926 44.8533 88.7123
362 2 52.1943 42.8761 85.424
363 2 51.9584 43.8738 87.8276
364 1 51.1305 41.1783 87.2076
365 1 54.8917 42.9344 85.0354
366 1 53.9587 41.9461 87.6867
367 1 54.373 44.733 88.9054
368 3 56.128 43.5886 87.2084
369 1 56.7898 40.8953 86.568
370 1 56.3408 42.3825 89.5821
371 1 57.9541 43.8809 85.223
372 3 58.4233 42.7366 87.7527
373 1 60.0772 44.8343 87.211
374 4 29.058 45.2098 85.5807
375 4 27.8901 47.5476 88.7887
376 4 29.0588 48.2806 86.1682
377 4 29.873 45.6648 88.1137
378 4 31.5431 46.3641 86.2601
379 1 30.8881 48.4344 88.439
380 1 34.4129 46.062 87.518
381 3 33.0741 48.3595 86.8557
382 1 33.9992 48.7869 89.3531
383 1 35.8572 49.0024 87.0274
384 2 37.1212 46.8886 85.5824
385 1 37.3777 46.5757 88.3045
386 2 38.5007 48.9895 87.6221
387 1 39.7852 46.8717 86.2823
388 1 41.2159 49.3081 87.1452
389 1 42.9994 46.9603 85.9424
390 2 43.3811 48.1646 88.367
391 3 41.5325 46.3195 88.1604
392 1 40.071 48.1245 89.5977
393 1 43.9805 49.7323 85.9294
394 1 44.2219 45.3486 88.2242
395 4 45.4914 45.9799 85.3409
396 1 46.0608 47.9245 87.3922
397 1 48.2793 49.5588 86.1758
398 2 47.8479 49.2524 89.0118
399 4 47.3026 46.3578 89.6534
400 1 48.6298 46.7209 85.0844
401 3 49.0611 47.3847 87.6876
402 2 50.4213 49.6362 88.3583
403 3 50.6714 45.7661 86.4956
404 1 51.2029 48.2964 86.0964
405 1 52.1222 46.7857 88.4283
406 1 56.0424 46.0236 85.9339
407 1 53.1696 45.4309 85.7663
408 1 53.2039 49.8489 87.8751
409 4 54.9229 47.4193 88.3654
410 2 54.1197 48.009 86.0212
411 1 57.5108 45.4427 88.5401
412 1 57.3122 48.4751 87.5224
413 2 58.6937 46.7972 86.0029
414 1 59.9482 47.261 89.0389
415 2 60.2823 48.8923 86.8668
416 3 61.4783 49.5981 89.3701
417 4 27.1034 50.2804 88.8391
418 1 29.7386 51.3492 88.4255
419 4 28.3332 52.3084 86.0235
420 1 29.3336 54.5379 87.6919
421 5 27.5077 53.0959 89.4458
422 1 33.7206 50.3332 85.152
423 1 30.7446 50.6258 85.6552
424 3 32.3639 50.5283 87.7125
425 2 34.3927 53.4774 85.5154
426 3 33.3269 53.6383 89.5797
427 1 31.9421 53.2232 87.1218
428 1 34.5856 51.822 87.7527
429 2 30.8466 53.4157 89.6775
430 1 36.4248 51.5138 85.1495
431 1 38.9808 49.9608 85.2831
432 1 35.9873 53.7225 89.5343
433 1 37.6294 51.6141 87.8365
434 3 38.8411 53.765 88.8344
435 1 38.9898 54.5604 86.3417
436 3 36.4665 53.8065 86.7959
437 3 40.128 52.0348 86.8963
438 5 41.8587 51.4348 85.0645
439 1 41.6679 54.0047 88.0416
440 1 42.8367 51.3687 88.2993
441 5 41.7022 54.348 85.1471
442 1 40.1045 51.1655 89.5071
443 2 43.9411 52.5814 86.2366
444 1 45.2068 50.1456 89.3925
445 1 45.2517 53.3498 88.6937
446 2 46.0105 51.1126 86.9873
447 4 48.0761 51.7754 88.2477
448 5 46.4121 53.6305 85.9815
449 1 48.7791 52.291 85.0558
450 1 51.229 54.2249 85.2966
451 1 50.5586 52.9263 88.8355
452 1 51.3027 51.4125 86.3456
453 3 52.8545 53.4852 87.457
454 4 48.8707 54.5469 87.1083
455 3 54.3245 52.2115 88.8312
456 3 56.9987 53.1198 85.0305
457 3 56.6931 51.9989 89.1873
458 1 55.6565 54.1401 87.2574
459 1 55.7251 51.0632 86.7335
460 1 58.8391 50.4129 88.9676
461 1 58.624 50.7589 85.7487
462 1 58.3774 53.0829 87.443
463 2 59.7683 53.2738 85.0894
464 1 61.0327 52.035 87.9841
465 1 28.3511 57.0956 86.6052
466 3 29.4757 56.9673 88.9045
467 3 28.3443 59.182 88.9579
468 2 31.1995 56.4468 86.8746
469 1 30.348 59.127 87.0192
470 1 33.4006 57.2751 85.3711
471 1 34.1734 55.2786 87.4888
472 1 33.0416 58.5501 88.0636
473 1 31.8799 55.9714 89.394
474 3 36.0351 56.0382 85.6333
475 1 38.6184 57.373 86.6373
476 3 37.1659 55.7155 88.1729
477 1 35.8302 58.0355 87.369
478 2 37.652 57.81 89.5475
479 1 39.9747 56.3264 89.0717
480 2 41.5939 56.5274 86.818
481 1 42.6636 57.5193 89.1795
482 1 41.0009 59.2422 87.0162
483 2 39.9138 59.0201 89.5764
484 1 44.0759 55.315 86.7447
485 1 44.1282 58.2584 86.7485
486 2 46.7683 56.1492 87.1568
487 1 46.4333 59.2212 88.373
488 2 46.7389 58.2812 85.7249
489 1 45.4413 56.5014 89.4058
490 1 48.5825 57.211 89.1776
491 4 49.2348 57.4305 86.4929
492 1 51.446 55.9369 87.8416
493 1 52.8946 58.6492 87.4646
494 2 53.6124 55.5205 86.1481
495 1 55.1885 57.6948 85.8893
496 1 54.5104 56.3952 88.7101
497 2 56.8535 57.2586 87.9258
498 2 55.356 59.0942 88.4717
499 1 57.9075 55.7865 85.9235
500 1 58.4173 55.5206 88.9617
501 3 59.3432 57.6322 87.4102
502 5 60.6623 55.0766 87.1921
503 1 60.664 57.2816 89.7465
504 4 30.0014 61.5262 88.9041
505 2 34.5549 59.7571 85.67
506 1 32.2919 61.4506 87.0804
507 3 34.2392 62.2692 85.4812
508 5 33.6172 63.627 88.643
509 1 38.0531 59.9638 87.7157
510 1 35.1552 61.0973 87.8985
511 1 36.9748 61.3065 85.4378
512 2 35.735 63.6901 86.9638
513 2 37.3868 62.502 88.5361
514 1 38.4303 63.8472 86.3743
515 1 40.1839 61.7286 85.2511
516 1 40.0301 61.9886 88.2813
517 3 42.7154 61.6265 86.7068
518 1 43.6019 63.6947 88.4742
519 2 41.3544 63.8493 86.9745
520 1 42.482 60.6594 89.2759
521 1 48.3657 60.3217 86.3502
522 1 44.2839 63.588 85.4475
523 1 45.4034 60.8757 85.9122
524 2 47.6336 62.7338 85.2584
525 3 44.8369 61.2992 88.5057
526 1 46.5967 63.1165 87.6386
527 2 50.8006 59.42 85.8617
528 2 48.5429 61.6009 88.6431
529 1 50.4246 59.6834 88.7366
530 3 49.9697 62.4259 86.4934
531 3 52.1226 61.239 86.9807
532 1 51.0642 62.869 88.8722
533 1 57.5189 59.4974 86.6362
534 1 53.4772 61.0072 89.359
535 1 54.9826 61.1841 86.5554
536 1 53.7453 63.5666 87.8254
537 1 56.5459 61.4169 89.1683
538 1 36.4133 64.9481 89.3757
539 3 37.1521 66.0612 87.0258
540 1 38.46 67.1543 89.3131
541 3 39.253 64.5697 88.8196
542 1 39.9292 66.3503 86.827
543 2 41.6061 65.6376 88.8939
544 1 42.8589 66.193 86.46
545 1 46.9713 65.4636 85.2954
546 3 45.2396 65.3909 87.2807
547 1 44.1944 67.4222 88.8817
548 5 45.3433 67.7387 86.1468
549 3 47.0741 66.8402 88.0086
550 1 48.9888 64.8895 87.3762
551 3 51.4997 64.489 86.5942
552 3 51.3628 65.5769 88.7904
553 1 33.7927 35.2793 92.8693
554 1 38.1403 34.0667 90.116
555 1 35.1991 34.8859 90.176
556 5 36.811 34.4962 92.7805
557 4 39.3047 33.1653 93.1544
558 2 39.9529 35.3919 91.7388
559 4 41.6737 31.5714 93.1645
560 3 43.5252 32.2673 91.1012
561 5 42.5163 34.5268 91.945
562 1 40.7425 32.5933 90.6647
563 4 41.5873 34.3336 94.4576
564 4 44.1436 35.6854 94.0551
565 1 45.6452 33.9271 91.9387
566 1 45.7279 31.0186 92.0112
567 1 48.2527 32.6334 90.9701
568 1 44.0413 32.6464 94.0213
569 1 47.7125 32.1535 93.9731
570 2 49.1949 35.3304 90.6229
571 1 51.2261 33.3528 90.2996
572 2 48.6452 34.4847 92.9185
573 1 50.6611 32.2417 92.9946
574 1 51.3092 35.1663 92.6681
575 1 53.6537 33.3846 92.1854
576 3 53.0736 35.3936 90.5609
577 4 55.8037 34.1881 94.059
578 3 55.4722 35.3523 91.4187
579 1 29.608 39.2125 90.8851
580 1 31.6385 37.0123 91.2745
581 3 34.2924 37.2472 91.1879
582 1 32.649 39.8251 91.1667
583 1 30.7496 39.472 93.6577
584 4 33.4234 38.0993 93.4806
585 2 31.2094 36.7233 94.0707
586 1 38.9682 36.0335 94.2922
587 2 35.3437 39.227 92.3492
588 1 36.9468 37.0498 91.431
589 5 35.857 36.8618 94.268
590 1 37.6901 40.1655 91.4435
591 4 37.8993 38.576 93.855
592 3 39.4509 37.8822 91.8892
593 3 41.652 37.2591 90.5362
594 1 40.5808 40.2007 92.7229
595 1 41.6655 37.1857 93.2032
596 3 42.8718 39.2223 91.8909
597 1 44.1842 36.7613 91.1198
598 1 48.229 38.174 90.4777
599 2 44.3289 38.2307 93.6829
600 1 46.8257 36.5186 92.3938
601 1 45.6217 39.5264 91.688
602 4 47.8409 39.1592 93.4075
603 1 51.1128 37.3336 90.2922
604 1 52.7311 40.0459 89.8139
605 2 49.4795 37.1143 92.7153
606 1 51.9733 38.1319 93.1429
607 1 50.2233 40.1452 91.9746
608 2 54.5644 38.8703 93.5826
609 3 56.781 37.6492 90.4369
610 1 54.1444 37.6784 91.1429
611 5 53.9499 36.1184 93.7828
612 1 56.6411 37.1495 93.1423
613 1 55.836 40.0838 91.4213
614 2 56.878 40.0112 93.8606
615 1 58.6405 39.0519 91.9419
616 1 28.1835 41.7711 90.234
617 3 28.3858 40.6747 93.0224
618 1 28.4254 43.3516 92.7582
619 4 29.8968 44.047 90.2001
620 3 30.4388 41.5955 91.963
621 2 34.5626 44.5892 91.7189
622 5 33.2641 41.2769 93.6452
623 1 32.4386 43.1341 91.2148
624 1 30.7512 42.5738 94.4394
625 5 30.8753 45.0337 92.7826
626 1 33.4401 44.1352 94.167
627 3 38.8149 42.404 92.3191
628 1 36.3563 42.8781 93.5873
629 1 38.8677 44.8966 92.9696
630 1 36.9567 44.066 90.547
631 1 35.0567 41.7678 91.2812
632 4 38.4859 40.9483 94.4609
633 1 39.7909 45.1727 90.0151
634 1 42.049 41.6049 90.3748
635 2 41.146 43.6328 91.7594
636 1 43.5233 41.6309 93.0062
637 5 40.8236 42.6768 94.1373
638 1 43.1814 44.2018 94.5348
639 1 43.9027 44.0696 91.2985
640 3 44.6307 41.5886 90.4644
641 1 47.8961 41.1371 90.4142
642 2 45.6004 43.3799 94.0804
643 3 46.1943 42.488 91.9969
644 1 48.2938 42.0008 93.5456
645 3 46.3517 45.1053 91.7744
646 1 47.6639 44.9126 94.1131
647 1 48.7383 43.9704 91.3612
648 1 50.9871 42.3739 90.0104
649 3 50.9495 42.8132 92.7166
650 1 51.8545 45.0663 90.9011
651 2 53.7893 42.7279 90.6726
652 5 56.5474 44.7259 91.2199
653 4 53.9522 44.8611 92.8609
654 1 53.0681 40.9975 92.6305
655 1 55.6518 42.5229 93.0434
656 4 59.1607 43.5798 90.1313
657 1 58.239 43.8801 93.7921
658 2 57.9863 41.8898 91.8227
659 4 61.63 45.0048 90.0331
660 1 60.9119 43.416 92.5324
661 2 60.2958 41.1594 91.0163
662 1 59.5963 41.1194 93.9249
663 4 27.1938 45.2199 90.9426
664 4 26.7751 48.2655 91.4834
665 5 28.2928 49.6372 93.5213
666 4 28.1812 46.3719 93.1932
667 1 29.2451 49.5651 90.7444
668 4 29.6588 46.7192 90.7788
669 2 26.3554 47.7752 94.3497
670 1 32.4597 46.0077 89.8957
671 1 33.2061 46.8884 92.6831
672 3 31.8684 48.563 90.9829
673 4 30.5044 47.8265 93.1779
674 5 35.5043 48.3952 91.7984
675 1 38.1299 48.3164 93.5564
676 4 37.6219 46.8412 91.0932
677 1 36.0519 45.9779 93.444
678 2 35.2244 46.3523 90.1177
679 1 37.3741 49.5126 90.0124
680 4 35.0975 48.7832 94.5015
681 3 39.9511 47.137 92.021
682 2 42.3594 49.4268 90.2591
683 1 41.8784 48.4492 93.0512
684 2 41.6344 45.6555 93.0639
685 1 42.4014 46.5765 90.6642
686 3 39.528 49.792 91.8143
687 4 44.294 49.5034 92.0822
688 1 44.5249 46.5083 93.0674
689 3 46.9267 47.587 94.0248
690 1 47.0774 48.7422 91.5977
691 4 45.0336 47.3004 90.2796
692 1 49.812 47.5356 90.2794
693 3 48.5001 46.5743 92.2915
694 3 49.2295 48.8443 93.1276
695 2 52.2627 48.6938 90.2494
696 1 51.5935 47.5964 92.6827
697 3 50.3695 45.2024 93.1211
698 1 54.24 47.9729 94.1023
699 3 53.6875 49.595 92.0345
700 1 54.3325 47.0754 91.1395
701 1 55.4039 49.8099 89.8712
702 3 56.0369 49.3592 92.6285
703 4 56.4792 46.3286 93.3883
704 1 57.2937 47.705 90.7106
705 1 62.2083 47.6464 91.4123
706 2 58.1603 48.2302 93.4737
707 1 59.4792 46.038 92.0026
708 2 60.6026 48.0199 93.7682
709 1 59.8023 49.1149 91.4877
710 1 62.1056 45.842 93.7532
711 4 25.3935 50.1043 93.4751
712 2 26.7882 51.1782 91.4291
713 1 26.8379 54.3431 92.0465
714 5 29.1393 52.3167 91.6342
715 4 29.1675 54.6418 93.6133
716 1 27.1825 52.1883 94.0803
717 4 33.7314 50.1937 92.5433
718 1 34.537 52.9487 91.9961
719 1 31.6021 53.6978 92.2602
720 1 32.2997 51.229 90.2566
721 4 31.0553 50.4733 92.7941
722 4 30.0268 52.1937 94.4392
723 4 32.8371 52.0625 94.3529
724 3 35.2517 51.0608 90.2733
725 2 37.8565 52.2154 90.6474
726 1 36.8396 50.9002 92.8183
727 2 37.1655 53.5602 92.7277
728 2 39.3375 52.3026 92.6584
729 1 42.7556 54.2893 92.8965
730 1 41.7843 51.3408 92.0906
731 2 43.5096 52.6196 90.5531
732 1 40.6629 53.7878 90.8037
733 3 44.5248 52.0483 92.662
734 1 47.8122 54.358 89.8081
735 1 46.2166 50.399 94.0704
736 1 45.4772 54.5861 91.8348
737 1 46.8294 51.864 91.1918
738 4 47.6573 53.4204 93.8733
739 4 48.7711 51.3207 93.3906
740 1 52.3623 51.3112 90.4247
741 2 50.0699 53.0796 91.7153
742 1 51.5057 50.5266 93.297
743 2 52.4994 53.0623 92.6622
744 1 49.5721 50.4709 90.7958
745 1 53.0509 54.2306 90.1861
746 4 56.06 54.2837 90.1366
747 1 54.9373 52.0644 91.6882
748 4 57.1495 53.8435 92.4717
749 1 54.705 53.8831 94.0255
750 5 54.1247 50.935 94.3217
751 2 56.6877 51.645 94.0338
752 3 61.8642 50.1746 92.8314
753 1 57.7817 51.1036 91.6764
754 2 58.7024 53.1329 90.229
755 1 61.1006 54.2544 90.0882
756 1 60.0559 53.292 92.9401
757 3 60.651 51.5966 90.8542
758 1 59.4732 50.6786 94.1835
759 5 29.2343 55.0978 90.7196
760 5 27.2673 56.9143 93.8521
761 1 28.3408 57.7277 91.3446
762 2 29.6833 58.7324 93.7376
763 3 33.1481 58.1994 90.7335
764 5 30.8054 58.8235 89.9913
765 1 33.6429 55.1941 94.1514
766 1 31.142 56.7763 92.2738
767 2 34.0681 57.461 92.7509
768 3 33.3752 55.4103 91.4198
769 1 35.1574 56.6303 89.9507
770 3 35.2264 59.2789 89.8251
771 3 35.6039 55.3926 92.2394
772 1 37.9583 55.3328 90.9087
773 1 36.86 57.8244 92.2687
774 1 36.8939 55.6606 94.4773
775 3 43.235 54.9949 90.0423
776 1 39.6414 55.104 93.3138
777 3 39.4474 57.4741 91.6902
778 3 41.5131 56.2261 91.4051
779 1 41.4399 57.317 93.967
780 1 41.7844 58.9404 91.5789
781 2 43.5154 59.2418 93.6468
782 3 43.8544 56.978 91.6577
783 1 44.3632 56.5787 94.185
784 1 46.7378 57.5555 91.9141
785 2 45.911 58.8692 94.1881
786 4 46.9468 55.8159 94.4088
787 4 48.6366 55.4012 92.3926
788 1 52.3856 57.5724 90.3041
789 1 49.8886 58.1624 91.8627
790 1 51.7056 55.7015 92.9689
791 2 52.6915 58.4088 92.9376
792 5 50.4484 55.4024 90.4419
793 1 48.5139 58.2541 94.4416
794 1 54.5794 56.0618 92.0598
795 1 57.281 58.1798 92.8272
796 2 56.596 56.8519 90.5006
797 1 54.952 59.0267 91.1417
798 1 54.6894 57.608 94.5467
799 2 56.7655 55.8942 94.1245
800 4 61.7713 56.1342 92.3678
801 1 58.1174 58.9112 89.7958
802 1 58.8951 55.8484 91.7788
803 2 60.0224 58.2366 92.3362
804 2 61.4478 58.0404 94.5234
805 4 27.3704 59.8636 93.6051
806 1 29.2082 60.5698 91.5118
807 4 31.4201 63.4396 90.79
808 1 32.8612 60.9562 90.0706
809 1 31.9446 59.7712 92.6827
810 5 33.4368 62.4832 92.6606
811 1 30.5539 62.3049 93.4543
812 5 35.4236 62.3245 90.4731
813 1 37.5619 60.3405 90.5743
814 1 34.931 60.0704 92.3826
815 3 37.2783 61.6904 92.8821
816 3 35.9086 63.6272 92.5619
817 1 38.2541 63.2768 91.0025
818 3 36.8635 59.7053 94.2007
819 1 39.3141 59.8728 92.9192
820 1 41.4397 63.3448 90.4531
821 3 39.6638 62.7816 93.0981
822 1 42.2044 61.6184 92.864
823 3 40.1472 61.1634 90.8588
824 2 48.0326 59.5675 90.3641
825 2 43.9667 62.4752 90.9514
826 1 44.7553 59.5486 91.0231
827 3 47.6206 60.1755 92.629
828 1 45.3159 61.4026 93.4292
829 1 47.9984 63.1371 92.9489
830 1 46.5514 61.9295 90.5442
831 5 48.598 63.8906 89.9769
832 2 51.8574 60.0206 91.1636
833 1 50.8458 60.4189 93.7306
834 1 49.6589 61.4898 91.2184
835 2 50.7172 63.0301 93.3309
836 3 52.129 62.5315 91.2529
837 1 53.7541 61.2059 92.8157
838 2 54.8605 62.8263 90.8769
839 1 56.7963 61.2103 92.214
840 2 55.9382 63.6715 93.2221
841 3 55.9712 59.9714 94.4176
842 4 59.5162 60.6798 91.7688
843 3 32.1674 64.6554 93.3329
844 1 34.0879 64.9576 91.2489
845 5 34.6682 65.3691 94.0809
846 1 37.1253 67.1405 94.479
847 1 38.9712 68.1434 92.2529
848 2 37.2262 65.7535 92.0178
849 1 39.9962 65.6292 91.246
850 1 41.3621 68.0422 90.1382
851 2 41.8297 64.4272 93.0179
852 1 39.6861 65.7165 94.1057
853 1 43.3062 65.6514 91.1499
854 2 41.7058 67.1528 92.8681
855 3 43.9714 66.3801 93.8342
856 1 46.0114 65.1377 89.8458
857 1 46.6721 68.233 90.4707
858 5 45.37 64.1335 92.467
859 2 47.8318 65.5214 91.7943
860 3 45.7424 66.6503 92.2451
861 1 43.9102 68.5598 91.8423
862 1 45.96 68.3825 94.3029
863 1 47.0589 65.6513 94.4781
864 1 50.8023 64.9791 91.4129
865 3 49.5435 65.2396 93.6401
866 1 48.7082 67.7249 92.8938
867 1 49.1393 66.8338 89.8025
868 2 51.7073 66.3973 93.7902
869 3 53.1701 64.5405 90.246
870 1 53.2072 64.1892 93.0697
871 3 33.9573 33.7909 97.4043
872 1 32.1895 35.3827 98.5328
873 4 37.9257 33.2543 95.6249
874 1 36.4906 33.5851 98.288
875 4 35.4021 34.1521 95.2757
876 1 39.0148 35.0269 99.155
877 4 40.0862 34.4805 96.5431
878 4 42.0141 32.4099 96.5151
879 4 39.2845 32.3001 98.1926
880 3 43.0953 32.817 98.9478
881 1 41.9043 35.2044 98.6774
882 4 45.5816 31.7329 96.2258
883 5 44.0139 34.3357 96.708
884 4 46.2934 34.477 94.8828
885 1 45.7977 33.003 98.8588
886 1 48.1822 33.2475 96.7998
887 2 44.4573 35.2219 99.2897
888 3 50.062 33.7709 95.0254
889 1 51.2357 33.8828 97.6864
890 1 52.8206 33.5281 95.0349
891 4 28.4922 38.8808 95.294
892 3 29.0741 39.0982 98.1339
893 1 32.7441 39.281 95.8622
894 1 33.3659 36.1883 95.879
895 1 30.6804 37.468 96.7405
896 3 33.0951 37.9806 98.2256
897 1 31.4576 40.4032 98.5265
898 2 34.8321 36.0177 98.192
899 1 35.5983 39.9991 94.8439
900 1 37.2233 36.12 96.884
901 2 35.2461 38.0637 96.6431
902 1 35.6728 38.3359 99.302
903 1 38.0515 39.0006 96.9529
904 2 40.1439 38.4724 95.1787
905 1 42.5525 39.7058 95.0521
906 2 39.8807 36.9725 97.3705
907 1 42.317 36.7868 96.1146
908 3 43.3557 37.517 98.4637
909 1 41.2018 39.3512 97.6985
910 4 46.4715 37.5007 95.0345
911 4 44.7851 38.3432 96.6274
912 1 46.4589 35.7671 97.5798
913 4 48.0249 38.1435 97.2852
914 1 51.3423 36.0885 95.5096
915 2 49.273 35.7453 97.5338
916 5 51.6162 36.7175 98.3295
917 4 48.5337 35.9081 95.0543
918 4 49.8011 38.3961 95.0922
919 4 52.8532 38.527 95.8469
920 4 50.6831 39.1681 97.6704
921 1 54.1371 35.8041 96.8116
922 1 53.8186 38.6455 98.5219
923 1 55.8833 38.3034 95.8995
924 4 57.0789 35.7756 96.0008
925 1 56.4511 37.2361 98.6362
926 2 55.8218 40.2898 97.7741
927 3 58.0699 39.3788 97.417
928 4 58.7643 38.4381 95.0211
929 4 27.2959 44.0226 97.6364
930 4 28.0709 41.9069 95.6425
931 4 28.694 44.8077 95.3998
932 1 28.5337 41.536 98.961
933 2 30.2168 40.5425 96.2182
934 1 34.4967 40.5666 97.774
935 3 32.4541 41.8703 96.3793
936 1 30.405 43.2744 97.4577
937 1 33.3429 44.228 97.2716
938 2 33.0328 42.445 99.2238
939 3 34.7117 42.3713 95.7628
940 4 38.5748 43.6527 95.4688
941 2 37.2076 40.6007 98.8978
942 5 35.9999 44.6536 96.0189
943 4 37.1112 41.7236 96.5029
944 1 35.8963 43.1532 98.5552
945 1 38.9282 42.6955 98.499
946 3 43.735 40.479 97.6522
947 2 40.1247 41.3698 96.394
948 1 43.3375 44.8889 98.147
949 2 42.5853 42.1039 96.146
950 5 41.0112 44.2545 96.5734
951 1 41.8036 42.2195 98.7507
952 1 45.6457 40.6573 94.7988
953 3 47.5835 42.9181 96.1515
954 1 45.016 42.9855 96.7153
955 1 47.2455 43.2793 99.0251
956 1 46.4131 40.6233 97.7843
957 4 48.6117 40.5439 95.9693
958 4 51.1925 40.8725 94.9199
959 1 50.1215 43.6928 95.3118
960 4 52.9445 43.1838 94.6478
961 1 49.8711 42.2233 97.9669
962 4 52.572 41.2428 97.4592
963 4 52.1581 44.0278 97.2358
964 2 50.2803 44.7068 99.1102
965 1 54.4988 40.9101 95.3862
966 4 55.6364 44.2887 95.3795
967 1 57.332 41.6883 95.8331
968 2 53.8403 45.163 98.6917
969 1 55.0232 42.8503 97.7715
970 1 56.5535 45.1597 98.6456
971 5 58.5503 44.1437 96.7933
972 1 58.0288 41.8225 98.7636
973 5 60.1024 41.5488 96.7636
974 2 60.7338 43.7896 95.2881
975 2 60.7693 43.9747 98.1706
976 1 26.8788 46.8518 96.8963
977 1 26.6574 49.8561 96.1457
978 1 29.7438 46.138 98.3186
979 3 28.5423 48.6566 97.9884
980 1 25.9555 48.9455 98.9157
981 4 29.1638 47.7802 95.51
982 4 32.3302 49.0655 94.8592
983 4 33.8741 46.7029 95.7346
984 4 31.2668 45.7066 95.6438
985 1 33.3748 46.7965 98.7629
986 4 33.1597 49.7063 98.6653
987 4 31.2895 48.3012 97.166
988 5 38.5167 45.4292 97.5478
989 4 35.4092 48.3004 97.4142
990 2 35.9178 45.8754 98.4121
991 4 37.229 47.1834 95.9749
992 1 38.0845 47.8187 99.0528
993 2 39.3531 48.8203 96.683
994 1 40.0861 46.6029 95.061
995 3 41.7211 48.651 95.6043
996 2 42.7966 46.4714 95.8096
997 1 41.1025 47.2249 97.8854
998 5 44.2911 48.5652 95.008
999 1 44.1973 48.0682 97.8133
1000 1 45.5201 45.8854 95.8833
1001 1 48.3385 45.3608 97.203
1002 4 45.9414 45.8925 98.7413
1003 1 46.9931 48.5612 96.5023
1004 2 47.4881 47.9254 99.0858
1005 1 49.5678 47.0027 94.9921
1006 2 51.9189 48.5738 95.3872
1007 4 52.3377 45.8067 94.9468
1008 4 49.7676 47.6975 97.8282
1009 4 52.1372 46.8578 97.446