ITEM: TIMESTEP
468
ITEM: NUMBER OF ATOMS
666
ITEM: BOX BOUNDS ss ss ss
8.7121111744000004e+01 1.1541012825599999e+02
4.8649792410000003e+01 7.5731907590000006e+01
9.0453086514193558e+01 1.1861812279334880e+02
ITEM: ATOMS id type x y z fx fy fz
1 4 91.2733 54.9594 93.9012 0.136362 -0.0665529 -0.244907
2 2 89.9212 54.0966 95.6313 0.176285 -0.372512 0.679715
3 1 94.8355 55.2928 95.727 -0.000151364 -0.000193223 0.000175611
4 4 94.4877 53.3277 93.9233 0.0770012 -0.790283 -0.990655
5 3 99.7464 53.1221 96.0669 0.507585 -0.224488 -0.615252
6 1 96.3905 55.1324 92.8921 -0.854487 0.495734 0.598922
7 2 98.7415 54.8759 92.0112 1.32518 0.054719 0.0701271
8 4 97.5856 54.5605 95.9612 -0.888113 -0.370896 0.0402943
9 2 101.483 53.9066 93.8837 -0.0483898 0.55185 0.793405
10 1 104.585 54.4348 95.3332 1.87302 0.544683 -1.04494
11 1 88.468 59.8088 93.8682 0.659564 -1.23034 -0.576036
12 1 90.4819 57.8009 92.7748 0.00147204 -0.454414 0.759587
13 1 93.4654 56.1469 92.9459 0.323114 -0.445557 0.0286613
14 2 92.0723 58.2716 90.9862 1.77929 0.206096 -0.765725
15 1 93.7295 59.0605 93.5854 -0.00036875 0.000223938 0.000100292
16 2 90.6802 60.2411 91.8055 0.514288 0.095016 -0.5252
17 1 93.9019 62.1666 93.416 0.000317315 -0.000258997 -1.88069e-05
18 1 89.7402 57.2439 95.3606 0.491905 -0.830001 0.175669
19 2 92.3639 57.3874 94.9678 -5.21515e-05 -0.000807036 0.000593747
20 1 91.4401 60.4673 94.3638 0.000393055 0.000453455 -0.000192177
21 3 89.815 62.1087 95.6291 0.223522 0.760851 0.0666963
22 3 94.9584 57.7615 91.7665 0.968177 -0.163865 -0.330717
23 1 93.8193 60.5459 91.103 -0.779718 -0.256576 -0.706642
24 1 95.3714 60.4234 95.6641 -4.28021e-05 -0.00054697 0.000273911
25 1 98.1486 59.9502 94.7707 0.000391453 -0.00136923 -4.00861e-05
26 1 96.3066 61.9668 90.8708 -0.0345646 0.204103 1.00393
27 2 98.1031 62.5166 95.6486 -0.00022136 -0.00139115 8.84838e-05
28 2 96.2097 59.9198 92.8342 -0.000280749 -0.000345157 -0.000160065
29 1 98.0467 57.5476 92.4646 -1.16846 -0.162856 1.2242
30 3 96.1801 59.2573 90.4589 0.785924 0.305726 -0.0615108
31 1 96.2009 57.6114 94.5801 -0.000645132 -0.00067434 0.000258436
32 1 98.9942 60.3763 92.0101 -0.253799 1.06203 0.0813305
33 1 99.4396 55.9256 94.7119 -0.000219719 0.000650308 -0.000311912
34 1 101.214 56.3581 92.5606 0.0753963 1.0441 0.0598628
35 2 104.041 57.1284 94.0116 -0.074099 0.184686 -0.0579336
36 3 102.06 56.2004 95.1991 -0.000363738 0.000639316 0.000399199
37 1 100.903 61.3328 94.5756 -0.00035242 0.000173146 -0.000190823
38 2 100.392 58.4563 94.5043 0.000659404 -0.000549155 -8.82659e-05
39 2 101.292 62.1465 91.8173 -0.186248 -0.0340463 0.132744
40 1 102.164 59.3437 92.6424 -0.326259 -0.0909257 0.165441
41 3 99.5775 58.19 90.8508 2.35209 -0.00842293 -1.67105
42 3 103.817 61.6414 93.7032 -0.0892856 -0.720746 -0.279055
43 1 102.967 59.3189 95.5641 -0.000175187 0.000216339 0.000458235
44 1 105.652 59.6107 94.4413 -0.00892416 0.110417 -0.676537
45 2 106.626 57.0658 95.6502 0.0855464 0.295888 0.401629
46 2 89.4585 53.9047 100.208 0.000312574 8.08861e-05 -0.000347698
47 1 89.4836 55.3186 97.8884 0.884149 0.228633 -0.935779
48 4 91.1535 52.5697 101.279 0.854271 -0.436268 0.708842
49 5 94.5469 51.4657 98.8483 0.421992 0.183182 -0.484728
50 1 91.6941 53.1412 98.4055 -1.10912 -0.751157 1.48727
51 4 94.3851 54.3918 98.4508 -0.000403401 0.000199655 0.00083039
52 1 94.921 53.2015 101.055 -0.000355494 0.000587231 -0.000155208
53 1 92.9495 52.93 96.0999 0.622888 -0.238153 -1.00006
54 4 92.8465 50.6425 100.313 -0.69796 -0.0485495 1.06271
55 1 96.038 52.2501 96.7938 0.449274 0.810732 -0.566755
56 2 97.2373 50.7536 99.2674 -0.399504 0.00591762 0.372141
57 1 99.7733 51.0432 102.184 0.000103123 0.000350456 -0.000168922
58 4 97.1455 53.9342 98.9508 0.000478235 0.000503806 -7.13925e-05
59 1 99.4243 52.116 98.5581 -0.481411 0.792086 1.12919
60 2 101.935 52.4497 101.654 -0.000213271 -0.000442804 0.000161722
61 1 99.7885 55.0931 97.7529 -0.000409724 0.000467085 -0.00023576
62 2 100.644 49.763 100.008 0.330747 0.591411 0.00727771
63 1 100.18 54.4209 100.645 -0.000331893 -0.000463251 -0.000572501
64 4 97.9088 52.6539 101.09 -0.0005119 -0.000139106 0.000264866
65 2 105.026 54.4947 98.479 3.19254e-06 -0.000221438 -0.000295221
66 1 104.393 51.6623 98.1663 0.616135 1.55105 -1.21117
67 1 102.493 53.9863 96.7555 -2.14148 -1.08053 0.665532
68 2 102.151 52.9751 99.2448 0.000341035 -2.1564e-06 -0.00028021
69 4 101.413 51.0802 97.4456 1.3915 -0.431984 -0.595175
70 3 106.232 50.3269 100.644 -0.546171 -0.961832 0.769151
71 1 103.489 50.5392 100.424 -0.309328 -0.0550635 -0.721421
72 1 105.377 52.8603 100.75 0.000489555 -0.000575373 -0.000264366
73 1 103.25 54.7169 101.094 -0.000185082 -4.96271e-05 0.000522875
74 1 107.656 55.0076 97.51 -0.465079 0.185942 0.589402
75 3 107.246 51.8176 99.3401 0.806896 0.907303 -1.25742
76 1 108.248 54.1125 100.369 -0.609265 -0.656307 -0.535223
77 1 87.5166 58.7691 100.072 -0.85798 -0.869941 1.25933
78 2 88.1338 55.8722 99.8181 -0.907208 1.58105 1.71437
79 1 88.0529 58.0308 97.3338 -0.956123 0.474581 0.887562
80 1 90.3304 57.876 100.666 0.000202189 0.000202911 0.000629045
81 1 87.4721 61.7352 100.892 0.366575 0.386338 0.21234
82 1 89.4127 60.4009 99.0566 0.791003 0.563933 -1.29181
83 1 87.5999 61.0543 96.1052 -0.830481 -0.145867 1.58779
84 1 92.2169 55.8278 96.9948 -0.000152485 0.000564693 0.000734445
85 2 89.9846 59.7226 96.4646 0.000155198 -0.000162461 -0.000453957
86 2 90.746 57.852 98.0617 -0.000661544 7.33749e-05 0.00066817
87 1 91.9419 55.4287 100.109 4.13073e-05 0.00031284 0.000228422
88 1 93.612 57.6242 99.1535 -6.60717e-05 0.000135677 0.000430681
89 1 92.698 59.2595 96.7824 -0.00061143 -0.00082085 5.0634e-05
90 2 95.183 55.8413 100.473 0.000273972 -6.39817e-05 6.32925e-05
91 3 94.4482 59.7162 100.363 -0.000942525 0.000328114 0.000613481
92 1 91.5903 61.7676 97.5053 -0.000225167 -0.000630985 -6.15755e-05
93 1 94.3013 61.4231 98.4264 -0.000251413 0.000140163 0.000359661
94 4 96.5576 56.3095 98.1231 -0.000671653 -0.000503324 -0.0001604
95 3 92.0268 59.793 99.3886 -0.000195894 5.95825e-05 0.000208264
96 1 96.5445 58.145 101.121 0.000222198 -0.000203931 0.000520929
97 5 98.5541 60.2059 100.246 0.000343886 -0.000342649 4.68597e-05
98 1 96.466 59.1828 98.3142 -0.000569596 -0.000403018 0.000290267
99 2 100.95 59.3986 99.4793 0.000328658 -0.000155762 0.000399551
100 2 102.879 63.2728 98.4069 0.000291137 0.000504894 -0.000193211
101 1 100.47 62.8664 97.08 0.000173706 0.000437346 -3.50608e-05
102 3 98.6808 62.6645 99.0743 0.00022774 -0.000235372 -0.000659789
103 2 94.7637 57.7445 96.7329 -0.000247018 -0.000501215 -0.000168145
104 1 99.3581 60.1863 97.4265 -0.000504911 0.000282537 -0.00017025
105 2 98.2481 57.7017 96.5535 -0.00045716 0.000112606 0.00036183
106 1 98.9838 57.3208 99.5965 0.000746799 -0.000347752 0.000679763
107 1 97.4585 55.3137 101.814 -0.000500583 -0.00032271 0.00064811
108 1 101.025 61.9767 100.095 8.77644e-05 0.00106576 -0.000545211
109 1 105.73 60.785 102.648 -0.000102631 7.31114e-05 0.000171433
110 2 102.272 55.6868 98.6815 -0.000551218 0.000112758 0.000393125
111 1 106.185 55.8774 101.28 0.000392544 3.50875e-05 0.000937888
112 2 105.938 59.3355 100.356 0.000334083 0.000134666 0.000129552
113 1 103.497 58.8755 98.7979 0.00031391 -0.0006132 -0.000234097
114 1 104.036 62.2581 96.222 -0.000261367 -7.02254e-05 -0.000278975
115 1 106.57 57.429 98.6758 -0.000419824 -0.000393196 0.000765151
116 1 104.182 56.7781 96.8817 0.000247155 -0.000269715 0.000453808
117 3 104.295 56.6275 99.6852 -0.000233083 -0.000354932 -0.000194542
118 1 101.057 57.7179 97.1943 -0.000224016 0.000474726 0.000241019
119 1 102.92 60.187 101.532 0.000438009 0.000625785 -0.000570636
120 1 110.621 55.4609 99.9676 0.378493 0.70694 0.479686
121 1 105.884 59.9394 97.1813 8.32862e-05 -0.00159642 -8.97345e-05
122 3 108.516 60.0052 96.2434 -0.366897 0.379533 0.375903
123 1 109.273 57.769 97.8839 0.100215 0.383028 0.681429
124 3 108.533 57.0762 100.505 -0.000102838 4.42557e-05 0.000872952
125 3 110.382 60.3645 99.0052 0.211674 -0.169796 0.206967
126 3 107.95 60.1364 98.7484 0.000333203 -7.50175e-05 9.62314e-05
127 1 108.706 59.7463 101.203 2.76718e-08 0.000239441 0.000136276
128 1 111.208 58.2727 100.813 0.406328 0.14276 -0.236244
129 3 92.0635 52.9698 104.184 -0.996916 0.428248 -0.0675468
130 1 90.4794 55.1617 102.615 -0.0688303 0.617739 0.506109
131 2 97.9139 53.3448 107.02 -9.87983e-05 2.81723e-05 -0.000196325
132 4 96.5943 53.0852 103.622 -0.000915364 -4.27463e-05 0.000209363
133 1 96.8435 50.9423 105.592 -0.375149 0.605153 -0.411161
134 1 96.2416 50.6423 102.076 1.42486 -0.957215 -0.305072
135 1 94.2486 52.7475 105.663 -0.000204104 0.000288429 0.000301286
136 3 92.976 54.2839 102.383 8.66813e-05 0.00026828 -9.26127e-05
137 1 93.9255 51.4314 103.262 -0.794368 -0.0326397 -0.754065
138 3 98.2394 49.3378 104.447 1.16208 -0.160685 -0.672593
139 1 100.674 53.7164 106.49 7.34724e-05 -6.75841e-05 -8.77464e-05
140 4 103.167 51.4822 105.866 -0.000493217 0.000134156 0.000726745
141 1 101.289 54.7659 103.413 0.000210388 -0.000173188 -0.000137941
142 2 101.478 52.2611 104.193 -0.000359026 -3.4733e-05 -0.000125624
143 1 101.034 49.6316 104.683 -2.76335 -1.53782 2.14385
144 1 98.7697 55.3491 104.789 0.000186249 -7.74133e-07 7.84761e-05
145 5 98.9907 52.3562 104.56 -0.000372902 0.000281915 -0.000827763
146 4 98.5196 48.6529 102.059 -0.0534722 0.106554 -0.363994
147 1 102.683 50.0453 102.893 2.66934 0.0135864 -1.29506
148 1 100.185 50.8199 106.986 1.79626 -0.203373 -1.08199
149 4 104.753 49.049 105.506 0.0754362 0.21281 -0.250156
150 3 108.1 54.9664 106.492 0.000225883 -0.000178428 0.000277587
151 3 107.932 50.4248 106.2 -0.0449438 0.278416 -0.743958
152 3 108.582 54.524 102.871 0.000129044 0.000740366 9.83218e-05
153 1 107.902 52.8951 104.881 0.9878 -0.569682 0.331553
154 3 106.33 53.8242 102.993 1.83871e-05 -0.000288472 -0.00023005
155 1 106.108 50.4759 103.294 -0.540759 0.671887 0.2504
156 5 105.646 54.2879 105.583 0.000141557 -0.000381375 -0.000182936
157 1 104.055 52.697 103.445 -0.000121035 9.04453e-05 0.000241834
158 2 105.647 51.6725 105.774 -0.000346767 -0.000445301 -0.00031215
159 1 110.476 54.9209 105.25 -0.346866 0.354436 0.46943
160 1 111.012 53.8278 102.819 0.173631 -0.388736 -1.53744
161 1 108.547 51.7618 102.423 -0.225651 0.400751 -1.35311
162 1 90.3103 61.0029 101.866 -0.000446398 0.000417006 -0.000605123
163 3 90.2132 56.2172 105.163 0.26466 -0.320757 -0.0406592
164 4 87.6134 61.5243 104.067 0.681085 0.570273 0.331565
165 2 91.9658 61.8419 107.01 -4.10685e-05 0.000483382 -0.000854128
166 1 89.456 61.2223 107.085 0.194817 -0.616727 0.333535
167 1 91.9954 58.0903 106.283 -8.56253e-05 4.80353e-05 0.000409269
168 1 93.0586 60.57 104.948 -0.000340103 0.000377307 -0.000550787
169 2 90.4313 60.8421 104.613 -0.000511958 0.000118861 -0.000208533
170 1 91.0994 58.1984 103.476 -0.00022302 -0.000229049 -7.47081e-05
171 1 92.9094 55.4402 104.985 0.000303952 -0.000433407 -3.40893e-05
172 2 88.3586 59.566 102.804 0.0878878 -0.830305 -0.234943
173 1 89.1828 58.6491 105.509 -0.792873 0.502135 0.373914
174 2 88.346 57.0279 102.46 0.355491 0.0524553 0.129193
175 1 95.8897 59.6862 105.869 -0.000690719 0.00073125 -0.000584866
176 1 96.1552 61.5696 100.919 -0.000242369 -6.11058e-05 0.00040362
177 1 97.7323 60.2655 103.267 8.8975e-05 0.000256498 0.00016002
178 2 95.4836 61.9027 104.085 -0.000315799 0.000234682 -0.00112647
179 3 97.4935 57.3697 106.599 3.88147e-05 0.00123551 0.00022753
180 2 95.0963 55.094 103.274 -0.000144516 0.000823483 -0.000275969
181 5 94.8865 59.5872 102.944 -0.000324184 -0.000397959 5.08126e-05
182 1 96.0686 54.9397 105.846 0.000114225 0.000349164 -0.000466019
183 3 94.081 57.8742 104.721 0.000365506 -0.00029651 -0.000217968
184 2 92.5224 59.516 101.742 -0.000435031 0.000144041 0.000231329
185 1 93.5174 57.0162 102.215 -0.000403459 0.000236863 -3.93247e-06
186 5 99.7298 56.2557 107.571 -0.000222897 -0.000197481 -0.000143578
187 2 103.105 54.1353 105.618 -0.000118698 0.000273411 -0.000195377
188 1 96.6021 57.3397 103.987 0.00073335 0.000279777 0.000276923
189 1 101.951 61.7008 106.444 0.0003586 -0.00055041 -5.34928e-05
190 2 100.186 59.1091 102.022 0.000366024 -0.000480707 0.000119837
191 3 101.913 57.4118 103.248 -0.00093342 -0.000717994 0.000883128
192 1 101.766 57.2296 100.737 -0.000136901 -0.000737912 0.000626826
193 3 99.5506 56.7591 102.395 -4.7747e-05 -0.000209419 0.000549176
194 1 101.989 56.7643 105.8 9.06513e-06 -0.000709385 0.000862863
195 1 99.5029 58.2977 104.685 -0.000207162 0.00015405 -1.12066e-05
196 3 97.1256 62.0386 106.185 -0.000405271 0.00117229 -0.000116991
197 3 100.923 59.1458 106.706 -0.000717198 -0.000321791 0.000469624
198 3 98.5909 62.4928 101.538 -0.000408266 -0.000132235 0.000292287
199 1 104.94 61.6096 105.677 -0.000272164 0.000666464 -0.000701288
200 1 108.051 59.4367 104.458 0.000357639 0.000221735 0.000331407
201 1 107.215 56.247 104.23 -3.86489e-05 0.000448475 0.000205548
202 2 104.293 57.9377 101.898 -6.17693e-05 0.000772825 0.000371603
203 2 106.864 58.1698 102.358 -1.01604e-05 -0.000147527 0.000558439
204 1 105.153 58.5706 104.654 0.000212683 0.000302912 0.000654064
205 1 104.187 55.8746 103.662 -0.000276289 0.000749447 0.000158332
206 4 104.792 56.5285 106.779 -4.5781e-05 -0.00109382 0.000246583
207 4 109.64 59.3153 106.76 -0.000430347 -0.000349507 0.000236528
208 4 107.308 57.3973 106.708 -6.60964e-07 0.000315592 0.000571104
209 2 107.576 62.0679 105.493 0.000151069 0.000601547 0.000361691
210 1 109.74 56.8412 102.931 -0.000187826 -0.000447141 0.000480372
211 1 114.475 58.1816 106.609 0.845168 0.462543 -1.36695
212 4 111.715 60.6684 105.066 -3.03029e-05 0.000577662 -0.000265757
213 1 109.961 62.1836 106.841 -0.000120683 -0.000506255 -0.00014693
214 3 110.494 59.249 103.372 -6.77251e-05 0.000202722 0.000132027
215 3 114.329 61.053 105.239 0.0847357 -0.377982 0.103745
216 1 109.251 61.9075 103.148 -0.000229236 2.8065e-05 0.000207829
217 3 112.336 56.2045 102.752 -0.131823 0.395153 0.129548
218 1 113.44 58.6346 103.656 -0.578086 0.306836 -0.030772
219 1 111.9 61.029 102.108 0.450236 -0.713125 0.769365
220 5 111.514 57.6973 105.411 0.000423418 0.000475527 -0.000149101
221 2 112.88 62.1255 106.956 -9.46255e-05 -0.000119944 2.11209e-05
222 2 109.779 56.7241 107.114 0.000512617 -0.000171468 -0.000650425
223 2 113.265 55.6356 105.332 -0.270637 0.182113 -0.51101
224 1 94.9602 55.1859 110.628 0.464346 0.769352 -0.298134
225 2 94.3755 54.0222 107.923 0.413194 0.689828 0.862857
226 2 98.8723 55.4277 110.762 -0.000558183 0.000896864 8.04922e-05
227 1 98.5859 51.514 108.849 -1.18371 -0.580988 1.68672
228 1 97.1369 55.5156 108.666 -0.000171873 7.3847e-06 -0.000150609
229 1 96.663 52.8658 110.109 -0.489422 1.50084 0.290108
230 3 95.663 51.6178 107.587 0.0440954 0.950281 1.90063
231 2 98.2351 53.9177 112.505 -0.27793 -0.625139 -0.204845
232 1 100.03 52.1054 111.95 -1.5262 0.80568 0.801366
233 3 102.557 52.3413 108.121 -0.000490844 -0.000173916 0.000491856
234 1 105.248 53.3622 108.166 -8.01721e-05 -0.000407981 -0.000472005
235 2 103.664 53.3946 110.212 0.000106444 -0.000540933 0.000279721
236 1 105.079 51.1306 110.409 -0.831825 0.187054 1.28172
237 1 103.192 49.5477 107.776 -0.246074 1.12921 0.921775
238 5 102.084 54.1029 111.94 0.362167 -0.802498 -1.58184
239 1 101.975 51.1996 110.44 1.61491 -0.847781 -1.5019
240 1 100.364 53.6667 109.424 -0.000777932 0.000611879 0.00014679
241 1 104.595 52.494 112.861 -0.636969 0.34665 0.518594
242 1 106.172 54.3047 111.307 -0.000118918 -1.76354e-05 0.000128037
243 1 107.608 51.9763 112.957 -0.226078 0.461518 -0.518914
244 1 109.999 53.9219 110.67 -0.71064 -0.449073 0.790382
245 2 107.64 52.3215 110.298 -0.0763564 -0.149843 0.603365
246 1 108.058 52.6738 107.843 1.14522 0.0465776 -0.939735
247 1 106.196 50.461 108.142 -0.127519 -1.17842 -1.6829
248 3 112.62 55.2513 110.452 0.145637 -0.616201 -1.0328
249 1 110.824 53.9655 108.04 0.0585081 0.567924 -1.04357
250 1 95.0522 57.6051 112.428 0.223546 0.22997 -0.0344493
251 1 93.7741 59.926 108.065 -0.000663146 -0.000132217 -0.000296383
252 2 93.3659 59.6517 111.171 0.609399 0.217539 -0.237221
253 2 93.7286 57.5697 109.622 -0.121488 -0.044601 0.528044
254 1 92.192 61.825 109.796 0.640451 -0.123136 -0.213202
255 1 91.1298 58.9852 108.73 -0.372794 0.860674 0.622939
256 2 92.2594 55.78 107.871 0.403068 0.369614 -0.138447
257 3 97.0125 57.1429 110.854 2.53847e-05 0.000294331 -0.000272262
258 1 96.4505 60.1484 111.918 -0.000864934 -5.28071e-05 -0.000753606
259 3 98.9691 61.3583 112.862 -0.000932233 -0.000585638 -0.000288703
260 3 96.9263 62.8769 108.738 5.97642e-05 -0.000216861 -0.00165595
261 1 101.321 62.3268 111.525 -0.000577168 0.000262705 0.00035772
262 1 98.4699 61.2552 110.147 -0.000570832 0.000532978 -0.000276165
263 1 98.394 59.7889 107.43 -0.000633043 0.00117521 5.32748e-05
264 1 100.694 57.1309 112.239 -0.000354398 0.000374499 0.000534052
265 3 100.454 59.8052 111.361 -0.000982971 0.000567321 -0.000494425
266 1 99.2085 58.0758 109.734 -0.000134365 0.000153705 -0.000181532
267 5 96.2282 58.9363 109.204 0.000227088 -0.000431452 -0.00039247
268 1 94.7697 57.0634 107.267 -0.000115229 6.96076e-05 -0.000553544
269 2 98.6708 58.8491 112.528 4.93976e-05 -8.05712e-05 -0.000613735
270 4 106.618 62.2485 110.769 0.000264425 -4.70963e-05 0.00034132
271 3 101.159 56.0363 110.027 -0.000277316 -0.000129166 0.000712804
272 1 104.155 61.4948 112.077 3.63252e-06 0.000287965 0.000325532
273 1 101.094 60.5435 108.939 -0.000484631 -0.000365858 0.000105965
274 2 105.378 60.2375 109.814 -7.74796e-05 0.000160593 0.00103826
275 2 104.97 58.9085 112.216 0.000230398 0.000530552 -0.000308519
276 1 103.689 56.1075 111.028 -0.000142981 -0.000198875 0.000370599
277 1 103.709 59.246 107.395 -0.000233209 -0.00066195 -0.000164973
278 1 105.545 57.5528 109.365 -0.000428459 0.000144154 0.000239851
279 1 102.832 55.1225 108.237 -0.000691473 -0.000615099 0.000488206
280 2 101.829 57.718 108.503 -0.000487376 -0.000113219 0.000112699
281 1 102.934 58.9758 110.571 -0.000234383 -4.0189e-06 -0.00065811
282 2 111.662 56.0457 112.369 -0.374364 0.306277 0.319544
283 1 107.687 55.4206 109.054 -0.000492648 -0.000109912 0.000146429
284 2 108.361 61.3244 109.019 -0.000351063 -0.000751533 0.00076068
285 1 110.334 58.6055 111.851 -0.000178427 -0.000238991 -0.000150454
286 4 110.224 59.6875 109.322 0.000573424 0.000254791 0.000209107
287 5 108.444 56.3264 111.838 -0.000220328 -0.000553689 -0.000398953
288 3 108.22 58.1496 108.97 -0.00050758 0.000622345 -4.61611e-05
289 1 110.396 56.668 109.636 -0.000381428 0.000290238 -0.000528111
290 1 107.417 59.0438 111.281 0.000140388 -0.000455201 -0.000201854
291 1 106.718 59.9917 107.434 -0.00101036 0.000511201 0.000352547
292 1 109.287 61.3325 111.597 -0.000185779 -0.000249879 8.47102e-06
293 2 105.982 56.7546 112.322 -0.000533501 -0.000495938 0.000228174
294 1 112.466 59.5872 107.824 -0.000270531 0.000564691 5.47432e-05
295 1 112.927 58.0287 110.457 -1.30726 0.0548997 1.03878
296 1 111.904 62.121 109.399 0.000399416 0.000271213 0.000301092
297 1 112.357 60.6666 112.043 -0.000302295 -0.000212044 -0.000156629
298 2 115.091 58.3089 109.449 1.59234 -0.0876773 -1.12582
299 1 115.407 60.7336 108.137 -0.188329 0.196281 -2.36487
300 2 114.302 60.6122 110.31 -0.686097 0.0797278 1.21543
301 1 112.848 56.3102 107.946 -0.654697 -0.198057 -0.0569013
302 1 100.955 54.7362 114.027 -1.31429 1.14048 2.18734
303 1 106.908 54.4739 114.328 -0.311007 -0.140492 -0.0518952
304 2 104.177 54.6367 114.533 -0.270003 -0.968726 -1.3996
305 1 109.538 54.3386 113.462 0.847909 -0.228138 0.43774
306 3 94.7587 59.9823 113.784 0.107002 0.22276 0.457053
307 1 96.893 61.7904 114.805 0.384865 -0.34317 -1.53054
308 1 99.897 60.6808 115.222 -0.197184 -0.0815334 0.062911
309 2 102.783 59.9061 115.922 0.189083 -0.199698 0.397031
310 1 102.054 59.869 113.372 -0.000240912 -0.000131988 0.000502579
311 1 100.797 57.7028 115.131 -0.715895 0.0990111 0.350672
312 1 97.5138 58.7836 114.843 -0.340588 0.699801 -0.41962
313 1 97.8448 56.3497 113.226 0.14744 0.562514 0.207016
314 1 103.338 57.2365 113.736 0.000380617 0.000594979 -0.000179761
315 3 103.205 55.9399 116.136 -0.582421 0.933438 0.438167
316 1 106.943 61.0258 113.492 -0.000492297 -0.000249825 0.00024798
317 2 108 61.9884 118.615 -1.40898 0.939997 1.04313
318 2 106.889 60.0471 116.06 -0.000237953 -0.000346042 -0.000237815
319 1 107.515 58.098 114.397 -0.00025743 -0.000593656 -0.00128508
320 1 106.993 55.9294 116.912 -1.10855 1.17774 -0.0816004
321 3 104.817 59.6096 114.437 4.45823e-06 -0.000229519 -0.000558594
322 1 105.336 60.7273 118.049 -0.0882579 0.213068 -0.932401
323 1 108.054 58.6609 118.196 -1.15598 -0.753397 -1.16808
324 3 105.57 56.5499 114.684 -6.58819e-05 -0.000437841 0.000252945
325 1 104.521 62.1683 115.085 0.000721527 -2.65658e-05 0.000105022
326 1 104.906 58.0761 116.506 -0.00185668 0.638539 1.12879
327 1 110.256 57.26 114.199 0.885143 0.146482 1.05006
328 2 109.616 59.9549 114.264 5.93289e-05 0.000284409 0.000200355
329 2 109.35 55.884 116.05 0.16194 -0.480282 0.507937
330 2 110.724 58.3979 116.856 -0.476618 -0.0202774 -0.543187
331 1 112.342 59.5981 114.669 -1.62897 -0.220781 1.71327
332 1 109.385 60.7775 117.033 0.143045 -1.01412 -1.7399
333 5 111.663 61.7308 116.185 -0.136913 -0.299336 1.41227
334 3 113.455 58.1474 113.172 0.477658 -1.093 -1.67961
335 3 114.711 60.5196 113.923 -0.240368 0.0551525 -0.761529
336 1 88.1313 64.1556 95.8566 -1.7238 0.19601 -0.083077
337 3 90.0183 64.7526 94.5893 0.367793 0.652658 0.996346
338 1 91.4523 64.5256 92.7925 0.513418 -0.459912 -0.922338
339 1 90.4937 67.414 93.983 0.502235 -0.251762 -1.30662
340 1 93.1047 66.9233 92.934 -0.467615 -0.317611 -0.501371
341 1 94.9864 63.3124 95.9987 8.07764e-05 -0.000476461 0.000325077
342 2 92.0947 63.0798 95.1191 0.000643115 -2.35951e-05 0.000131149
343 1 92.8493 65.6514 95.6024 -0.000322202 0.000116907 -0.000371778
344 1 93.0299 68.78 95.1658 -2.56284e-05 0.000448043 -0.000364497
345 2 91.1689 62.4758 90.6757 0.788347 0.0882596 0.653609
346 1 89.6088 62.3032 93.0011 -0.525874 1.21674 0.427244
347 1 93.5918 64.1704 91.2639 2.15244 -0.567523 -1.33488
348 3 94.789 64.6856 93.564 0.000466469 0.000118195 -0.000125574
349 1 99.5891 64.6566 94.8378 -0.000451632 -0.000437247 -0.000252288
350 2 98.0798 67.1274 91.8057 0.0540021 0.0580044 0.155403
351 1 97.7048 67.0608 94.5443 -0.000238474 -6.82656e-05 0.000106515
352 3 96.9175 64.6041 94.9273 -0.00010712 -0.00119296 3.90409e-05
353 1 97.2367 64.5533 92.2553 -0.915813 0.79863 0.900206
354 2 95.1147 66.7469 94.7033 -0.000799599 -0.000319812 -0.000190745
355 5 95.21 66.9459 91.4165 1.75808 -0.658426 -0.343764
356 2 96.6396 62.2537 93.6523 0.000223847 -0.000732287 -4.92458e-05
357 2 101.393 68.7755 92.6369 -0.151412 -0.301491 -0.307873
358 1 103.427 66.8336 94.2164 0.607692 0.236478 -0.05213
359 1 100.651 67.4443 94.7193 -0.00115599 -0.00099522 -0.00114042
360 2 98.567 63.3024 90.4563 1.0948 -0.348276 -0.0331783
361 1 102.354 63.8858 93.7082 -0.000215302 -4.27387e-05 0.000132387
362 1 100.365 65.421 92.1442 -0.495806 0.0902925 0.20569
363 3 99.0981 62.7986 93.064 -0.000399753 4.90767e-05 -0.000113018
364 1 108.312 65.1789 95.9687 -0.27751 -0.617238 1.12427
365 2 105.043 64.4516 93.6331 0.0920359 -0.287464 0.479107
366 2 106.36 67.371 95.6395 -0.0676995 0.58788 0.0931701
367 1 106.93 62.4072 95.1822 -0.152438 -0.00684276 0.352039
368 3 88.9429 69.1688 94.9904 -1.15663 -0.1869 0.991263
369 2 94.1339 71.2819 94.1804 1.77266 -0.187292 -1.43115
370 2 92.2175 69.5256 92.6125 1.47823 -0.46229 -1.07653
371 3 90.7433 70.1613 94.1212 0.330027 1.10567 1.32109
372 3 92.696 71.6329 95.6989 -1.0006 1.13373 1.20342
373 1 95.3627 69.0429 93.5001 0.604824 0.206965 -1.08486
374 1 97.1197 71.6535 94.7154 0.12117 -0.243895 0.198143
375 1 98.1728 69.5774 93.075 1.23843 -0.259643 0.00410762
376 4 98.9561 69.5003 95.9891 0.000674851 -7.29769e-05 -0.00016086
377 5 101.188 70.3875 94.7318 0.593657 0.111223 -0.379484
378 1 104.357 69.6379 95.3918 -0.345053 -0.963347 0.439565
379 1 87.2024 63.0587 98.1567 -0.204772 -0.22959 1.55261
380 2 89.607 63.0493 99.1822 1.46437e-05 9.18658e-05 -0.000355701
381 1 89.8454 64.0096 101.598 0.000409556 0.000308146 -2.20893e-06
382 1 87.5367 65.2703 100.3 -0.233173 0.0198855 -0.18828
383 3 89.759 65.7386 99.1396 0.000148636 -0.000541419 -0.000943155
384 1 87.96 67.4146 98.3315 -3.18915 0.583295 2.95108
385 1 90.9056 67.0094 101.137 -0.000765268 0.00054327 -0.0010474
386 2 90.4398 68.2346 98.7847 0.000557313 2.8765e-05 -0.000480888
387 1 89.5991 66.9517 96.4973 2.10691 -0.35399 -1.73485
388 1 90.6898 64.3631 97.1833 0.00016584 -3.53615e-05 3.78968e-05
389 2 91.8605 62.1998 100.098 -0.00130493 0.000272868 -0.00055613
390 2 93.9642 63.429 100.227 -0.000218947 0.000199555 -0.000281633
391 2 93.2971 64.0408 97.8529 0.000398186 0.000436678 -0.000450953
392 2 91.9458 66.6544 97.925 -0.000735867 -0.000685083 0.000198355
393 3 93.9621 67.8348 97.3315 -0.000966815 -5.63891e-06 -3.58399e-05
394 1 94.0241 66.063 99.49 0.000242118 0.000450071 -1.05834e-05
395 1 95.7454 68.8864 99.0982 -0.000245588 -0.00097698 -0.000209813
396 3 98.3332 64.6631 100.608 0.00057648 0.000119472 7.13279e-06
397 1 92.8531 68.9195 99.5455 -0.00035822 0.000264985 -6.56999e-05
398 1 97.6592 66.1622 102.814 1.76558e-06 -8.87828e-05 -0.000468001
399 1 96.2782 63.8867 98.9951 -0.000597648 -2.43423e-05 0.000138531
400 1 95.824 66.0468 97.0784 -0.00059563 -0.000161638 6.89388e-05
401 3 100.92 69.2409 101.447 0.000636473 -0.000524143 -0.000478478
402 4 98.0424 67.8137 97.7931 -0.000686008 8.27441e-05 -0.000425961
403 1 99.438 67.2054 100.365 -0.000729713 0.000140429 0.000327655
404 5 100.71 67.1711 97.5206 -0.00141212 0.000862083 -0.000649978
405 1 100.847 64.8524 99.3853 -0.000113182 0.000547576 -0.000693377
406 1 103.711 65.8438 99.0008 -2.97724e-05 0.000174594 0.000373358
407 4 98.5112 65.0539 97.5345 4.16606e-07 -0.000196154 0.00031196
408 2 96.9719 61.6959 97.6093 -0.000432046 -0.00113594 0.000940448
409 2 96.7159 66.4858 100.091 -0.000191122 -0.000692639 0.00058271
410 1 100.56 61.5243 103.066 -0.000225799 -0.000313232 -0.00041339
411 1 106.166 65.4608 100.889 0.000227951 -8.34832e-05 -0.000635562
412 5 106.189 67.0337 98.2833 0.000117532 -0.000249726 -0.000522256
413 1 102.349 65.0822 96.3918 -0.000361226 0.000680099 -0.000289072
414 1 105.374 64.9527 96.3081 -0.000146681 -0.000359818 -0.000469723
415 1 102.373 68.371 99.4297 -0.000644737 -0.00024122 -0.00152707
416 2 105.495 63.8486 98.6878 0.000340513 0.0004577 -0.00016852
417 1 107.294 62.4248 100.411 0.00028814 4.9828e-05 0.000161581
418 3 102.138 60.8653 97.6817 0.000297566 0.000440585 0.000459967
419 1 104.639 61.4794 99.367 0.000607204 -0.000107818 -0.00158212
420 1 103.516 63.6464 101.082 0.00122178 -0.00103193 -0.000785963
421 3 103.655 67.4551 96.841 0.00117484 0.000220064 1.62594e-05
422 1 110.693 67.3224 101.038 -0.057793 -0.19898 0.422072
423 3 108.285 66.6794 100.047 0.00034236 -0.000607814 -0.000118997
424 1 108.993 64.7221 101.748 -0.000153243 0.000128931 0.000134426
425 1 108.983 67.5659 97.8639 0.245027 -0.337334 -0.499871
426 1 110.454 64.954 99.1858 0.0478153 -0.515382 -0.175738
427 2 107.843 64.6462 98.5905 0.000123435 -0.000849246 -0.000575742
428 1 112.486 62.7344 100.134 -0.097956 1.30808 -1.16257
429 3 107.314 62.3124 97.7258 -0.000744496 -0.000843843 8.51744e-05
430 1 110.034 62.4529 97.3059 -1.61444 0.345368 1.20533
431 3 109.906 62.3924 100.359 0.00024303 6.46737e-05 0.000174714
432 1 89.1084 69.7079 100.397 -0.296544 -0.090367 0.32611
433 3 88.8317 69.6791 97.3956 0.0693952 0.471049 0.325822
434 1 90.9326 71.4344 99.3177 -0.38659 0.46742 0.976767
435 4 92.4752 73.7036 100.924 0.104345 0.264806 0.0677421
436 4 93.492 71.4065 100.749 8.34622e-05 0.000960257 0.000130482
437 2 95.2476 74.1012 101.232 0.32793 -0.067435 0.5367
438 1 96.0606 72.0359 99.7457 0.000931779 6.9388e-05 0.00103936
439 1 91.4234 69.9882 96.9997 -1.14389 -1.28956 0.0391638
440 1 93.0767 72.7583 98.1945 0.368279 0.811686 0.204429
441 2 94.1724 70.4242 97.5256 0.000671094 5.76506e-05 0.000735885
442 3 95.2929 74.5925 98.7222 0.223831 -0.639509 -0.0401468
443 1 95.3785 72.754 96.6717 0.485845 0.0211466 -0.164933
444 2 95.3339 70.043 101.68 4.43065e-05 3.41266e-05 0.000319276
445 1 99.442 71.58 101.497 -0.000104174 -0.000279026 -9.85672e-05
446 3 100.841 72.535 99.5427 0.327988 -0.0585385 -0.808259
447 3 100.593 74.2831 101.098 1.64293 0.0876598 -0.233706
448 1 100.424 72.158 96.8056 -0.106964 0.249067 0.395144
449 1 100.081 70.0338 98.8366 -0.000954034 9.98083e-05 0.000111514
450 4 96.0867 69.2465 96.2163 -0.000314628 -1.81364e-05 3.39634e-05
451 4 97.8305 69.5091 100.713 -0.00110214 -7.68751e-05 0.000283119
452 2 97.9834 73.8808 96.341 0.000399226 -0.494117 -0.0237752
453 5 97.749 71.3543 97.6698 -0.00102007 -0.000437002 -0.000524965
454 1 98.1038 74.1604 99.0102 0.122388 -1.30849 0.62767
455 3 102.133 71.1182 102.185 0.00018683 -7.24739e-05 0.000388578
456 1 106.754 68.9171 100.614 0.000209848 -0.000199753 -0.000469412
457 1 103.465 71.8551 96.9187 -0.326948 -0.529767 0.265232
458 3 105.504 72.6961 101.157 1.09358 0.700216 0.969431
459 3 104.549 69.3415 98.1661 0.000177751 0.000352134 0.000161252
460 3 102.092 69.4842 96.9761 -0.000260237 -7.02922e-05 -0.000722836
461 1 103.263 71.1681 99.6794 -0.170551 0.425071 0.591908
462 2 106.222 71.7671 99.2774 -0.365177 -0.391583 -0.542775
463 1 107.085 69.8304 97.9394 0.229318 -1.02923 -1.38927
464 1 109.264 69.9741 101.443 0.702 -1.18976 0.142515
465 2 92.0754 66.1434 106.184 -3.8314e-05 0.000572912 2.76835e-05
466 2 92.665 67.3762 104.029 -0.000672653 0.00067115 -0.000156519
467 4 87.7375 66.2585 104.566 0.124836 -0.143093 0.227798
468 1 90.1157 68.2002 105.411 1.13115 0.736406 -0.258599
469 1 90.4167 65.8203 103.889 -9.28743e-06 0.000166496 -0.000318633
470 1 88.1347 67.7886 102.14 0.567699 -1.23041 0.297106
471 2 91.7788 64.6319 99.7936 -0.000776669 0.000694068 -0.00127799
472 1 92.9128 63.8044 105.163 0.000644446 0.00151388 -0.000811173
473 3 91.034 62.9681 103.63 -0.000243017 0.000177192 -0.000175378
474 1 89.5329 63.7831 105.726 0.537305 -0.176346 0.017279
475 1 93.5802 68.4084 106.514 0.00066062 5.50517e-05 0.000100256