ITEM: TIMESTEP
1006
ITEM: NUMBER OF ATOMS
1985
ITEM: BOX BOUNDS ss ss ss
7.0195722853999996e+01 1.1237641714600001e+02
1.8754678130000002e+01 5.7982021869999997e+01
6.7996701634338109e+01 1.0831988014216620e+02
ITEM: ATOMS id type x y z fx fy fz
107 1 75.4445 26.8078 76.6063 -0.888888 -0.875505 1.0174
347 1 73.906 28.2806 80.1941 -0.737676 -0.205453 0.691664
666 1 75.2823 27.1114 86.125 1.13427 0.508192 0.599183
667 1 75.3679 26.1726 83.3543 -0.545357 -0.723869 2.04674
133 1 74.8693 32.2291 74.4912 0.169367 -0.660147 -0.0411421
23 4 74.4292 36.0718 71.1798 0.350041 -0.206071 -0.0432608
176 1 73.5362 37.1427 73.6738 0.380213 -0.321168 -1.29801
175 2 75.0017 34.8164 73.5798 1.8191 -0.0074479 -2.74622
131 5 71.6118 30.2144 77.9654 -0.657562 -0.346443 0.743822
136 1 72.9139 32.2351 76.674 0.164325 -1.20616 -0.545142
394 1 74.4789 31.5889 79.4723 -8.90623e-05 0.000594584 3.59324e-05
389 1 71.6424 33.1918 78.9767 0.18547 -0.791234 0.701847
132 1 75.2224 29.3477 75.0148 0.832767 0.144031 -1.42108
134 1 74.2043 29.3183 77.4998 0.0148192 -0.0660308 1.45035
390 1 72.1003 30.466 80.8442 -0.307879 -0.0862105 0.106677
172 1 71.8268 37.0667 75.583 -0.973691 -0.74778 1.32209
173 5 70.4896 38.0601 77.5804 -1.29071 0.442738 1.5917
174 1 73.606 34.632 75.4072 -1.39706 1.35488 1.07174
179 3 72.6618 35.1056 77.6509 0.199113 0.928153 -0.230796
177 2 74.7101 37.6226 75.9444 -0.000374138 6.77511e-05 -0.000218166
436 1 72.2553 36.3087 79.8123 1.03316 0.324551 -1.55668
435 1 70.6984 34.4937 81.2487 -0.792962 0.349012 1.93816
440 1 75.0972 33.8556 77.8368 -0.000181344 -0.000353693 0.000165536
439 2 74.5133 34.7283 80.3124 -0.000352834 -0.000634682 -0.000225642
442 1 75.113 36.6594 78.5745 -0.000535178 -0.000136948 -3.78883e-05
494 1 74.9365 38.1217 81.0776 0.000387708 -0.000203108 1.69164e-05
391 1 73.1428 33.0374 81.7706 0.000106614 7.1169e-05 0.000183782
714 2 74.4023 31.9447 83.9551 0.000338948 -9.95796e-05 3.86761e-05
710 4 72.8859 29.2354 85.6444 0.136011 0.484073 0.996794
711 1 73.5441 28.6253 83.1555 -1.35353 -0.385007 -0.949773
712 4 71.8889 31.3171 83.5988 -0.284544 -0.219605 0.522142
713 1 73.8727 32.3409 86.5173 0.641989 0.035141 0.0900976
398 2 74.8362 30.6534 81.9803 -0.000161921 -7.9651e-05 -0.00037832
772 1 75.2527 34.6087 84.3906 -0.000385758 -0.000114232 0.000537312
437 3 71.0601 37.4333 81.5817 -0.838551 0.237063 1.33848
438 1 73.4774 35.9305 82.4995 0.000157379 7.71144e-05 0.000420992
766 2 72.5652 33.8862 84.2693 -0.00914423 -0.0256105 -0.579299
767 1 72.2118 34.8053 86.6263 0.446784 0.178026 0.547226
768 3 73.6833 36.5265 85.2621 -0.000514086 -0.000126482 -0.000135452
769 1 70.9555 36.2359 83.9016 0.547324 -0.370387 1.17604
771 1 71.9966 37.8023 86.7726 0.0414546 0.228433 -0.0572034
823 4 74.3673 36.7729 87.9801 1.3457e-05 0.000352194 0.000448046
1065 4 73.8593 30.281 88.5723 0.178293 0.027924 0.187986
1115 3 72.2158 35.8968 89.0221 0.408009 0.0500228 0.34059
1120 2 73.2851 38.1565 90.2788 0.247191 -1.11769 0.535189
1114 1 74.1139 33.6697 89.2993 -0.797959 0.453889 -0.349949
1117 1 74.6156 35.6392 91.6014 0.998166 0.396867 -0.410518
48 4 71.9606 39.5491 72.5046 -0.121224 -0.24925 -0.309219
50 4 73.7128 41.527 70.9695 -0.127896 0.232275 -0.23654
49 1 74.809 38.8895 72.1094 0.0451618 1.09643 -0.359911
219 1 74.0045 41.1229 73.7507 -0.000231157 -0.000458115 8.53909e-05
258 4 72.326 43.353 73.1959 -0.0851323 -0.00572346 0.198142
80 1 75.1877 43.697 72.7774 -0.555927 0.413195 0.958792
259 2 73.2514 45.8356 73.8562 -0.542036 -0.49462 0.264731
215 1 71.1409 41.0096 77.601 0.300289 -0.113823 1.85472
216 1 72.8803 42.625 76.0982 0.837183 0.919897 -0.471878
217 5 71.6886 39.9821 75.1585 0.157897 -0.60403 -0.281869
221 1 73.1462 38.6083 77.88 -0.000123777 -2.56926e-05 -5.93282e-05
488 1 72.3149 39.371 80.5143 -0.531621 0.847143 -0.131685
489 1 72.1123 42.4357 80.3698 0.456377 -1.04976 -0.90162
218 2 74.1887 40.2279 76.2176 0.000207245 0.000151937 1.49068e-05
493 5 74.1777 41.2191 78.7048 -0.000435392 0.00029063 4.51372e-05
537 1 75.159 43.2448 80.8724 0.000534484 0.000100407 6.24091e-05
541 3 74.5278 45.7843 79.6106 0.962913 0.341955 -2.26754
262 1 73.2261 45.644 76.6045 -0.441416 0.0404319 0.379839
532 2 72.714 43.9338 78.4589 0.258889 0.22236 0.166512
538 1 73.6583 48.1148 78.3078 -1.45037 -0.586207 1.51557
539 1 74.2762 47.8294 81.3215 0.533064 0.512326 0.270248
261 1 74.6919 47.9439 75.6054 -0.905442 0.678422 0.14245
533 5 72.8027 45.2488 80.9327 -1.04028 0.218018 0.750707
535 1 75.4663 43.7802 78.0975 0.000128859 0.000324519 -0.000204237
491 1 71.81 41.2728 82.8913 -0.251709 0.369356 1.04267
818 4 70.2003 39.0295 83.5383 -0.147006 0.00705011 0.245415
819 1 73.1069 38.6628 83.6358 0.000709713 -2.92881e-05 -0.000212388
820 1 72.1738 40.6481 85.9014 -0.0929909 -0.129621 0.745996
490 2 74.3026 40.8151 81.6991 0.0002654 -3.69978e-05 -0.000108945
822 2 74.475 41.8971 86.9088 -0.000645795 0.000110511 -0.000206927
821 1 74.5419 41.4374 84.3399 0.00027476 0.000125719 -0.000663779
825 2 74.572 39.0158 85.9503 0.000216788 -6.70451e-05 0.000274328
877 3 74.7028 46.9647 86.0977 0.813955 0.528748 -1.09384
874 1 75.2047 44.1258 85.7252 -0.000385885 -0.000171427 -0.000166518
534 5 70.8469 44.0385 82.0972 -0.937983 0.150778 1.77575
873 2 73.555 43.5364 82.8866 -0.00010486 0.000228199 3.081e-05
875 1 72.2235 43.608 85.1501 0.120073 -0.345129 0.831774
876 1 72.9371 46.0692 83.7177 -0.142785 0.404705 0.395368
878 1 73.8257 45.4726 87.8428 -0.551141 -0.420705 1.57201
1175 1 72.7552 42.8891 88.605 0.24381 -0.420214 0.170938
1171 1 74.1851 40.0678 88.9158 -0.127555 0.387995 -0.928001
1172 1 74.5236 41.7206 91.4046 0.420186 0.163418 0.383943
1508 3 75.391 40.5967 93.9683 -0.466977 0.515388 0.707336
1224 1 74.7603 44.8587 91.1851 -0.179848 -0.953689 -0.0488119
583 2 74.6051 50.6013 79.8003 0.216124 -0.34774 0.718468
926 3 74.805 48.3287 84.0101 0.180956 0.107569 0.346108
1 1 80.3283 27.9578 72.967 0.783668 -0.273266 -0.434564
353 1 79.1336 26.8936 78.2984 0.000694389 -3.35752e-05 -4.33015e-05
108 3 77.564 25.184 76.2535 0.183831 -0.0647893 -0.0646502
110 1 79.7382 26.4182 75.4815 0.332207 -0.325838 0.0115435
346 1 77.1322 24.9875 78.8226 2.03466 -1.42293 -2.28474
348 3 75.9967 27.4364 79.1841 1.03254 0.57292 -1.52027
111 1 80.3042 23.9642 77.6079 -0.752774 0.176244 -0.332663
354 1 80.2152 24.4049 80.3922 1.69734 -0.653024 -1.96719
109 3 77.5403 27.7613 75.9434 0.947953 0.217407 0.766456
352 1 75.673 25.5586 80.7877 -1.84337 0.0520632 1.92931
351 1 78.0526 27.6777 80.8658 -0.000114588 2.81041e-05 -0.000378378
639 2 79.4775 21.9599 85.2107 0.163696 -0.0364742 0.382105
328 1 80.2714 22.9583 82.9182 0.322613 -0.394555 -0.0633605
350 2 78.4974 25.1478 81.7194 -2.72106 1.67617 0.425408
349 3 75.8903 28.3587 82.1103 -0.000178726 -0.00111764 -0.000416148
673 5 76.3312 24.3387 85.9345 -0.557605 0.695476 1.67646
671 1 79.4552 23.842 87.1089 0.415943 -0.741751 -0.4024
668 1 77.8824 24.2003 83.9209 0.812497 0.194124 0.172911
669 2 78.5813 26.2087 85.9314 -0.00105471 0.000178597 0.000387169
670 1 77.8812 27.4547 83.7398 -8.74115e-05 0.00056863 1.46487e-05
724 1 80.4061 28.3745 84.9167 -0.000354751 0.000328486 -0.000191611
359 2 80.2157 26.0856 83.208 0.000449002 1.71447e-05 -0.000120412
992 2 80.2686 23.4508 90.3229 0.696071 -0.00458127 0.133233
1021 3 77.2196 27.4628 92.0227 -0.120276 0.307807 0.0316433
1022 4 78.7536 25.115 91.4334 0.12606 0.575873 0.376143
1023 1 78.3581 25.8596 88.6203 -1.02473 0.736904 0.838302
1370 1 79.9915 26.717 93.9178 -0.199035 -1.05688 -0.0575255
1020 1 76.1181 28.0565 89.0433 0.774724 -0.139258 0.0794124
1026 1 79.4275 28.071 90.8803 0.00022388 -0.000275987 0.000683504
7 3 76.768 31.3167 72.9417 -0.830294 0.330097 0.441884
8 2 78.3268 30.2157 71.6717 1.17721 -0.614076 -1.60075
9 3 78.5895 33.0285 70.3273 0.744824 -0.878393 -0.61492
140 1 79.2475 32.3059 72.8599 -0.00141226 -0.0016825 -0.00017726
137 1 77.8071 28.7317 73.7301 -0.402225 -0.159283 -0.638309
24 5 78.4738 35.6346 69.4841 1.36049 1.01418 -2.27905
25 1 77.4125 34.7897 71.5646 -1.86105 -0.146134 3.40954
26 2 76.5994 37.6213 70.774 -0.299208 -1.3805 0.321591
27 1 79.2034 37.2946 72.4304 0.00999067 -0.004998 -0.00837796
181 5 77.2582 33.6669 74.3149 0.000100582 0.000644691 0.000184735
182 3 78.8631 35.6058 74.372 0.000168496 -0.00133819 0.00126173
183 1 76.5701 36.9149 73.4963 -0.00489558 -0.0013476 0.00173388
30 3 80.5265 36.8203 70.3971 -0.00328614 0.00146521 0.00664226
29 1 80.554 34.7218 72.2989 -0.000703468 0.00416152 -0.000433647
400 3 79.5716 29.4886 79.7189 0.000377242 3.37598e-05 -0.000313924
402 1 77.7544 31.8593 79.8006 -0.000332452 0.000437282 -0.000287824
135 2 75.8424 31.455 77.0355 -9.96029e-05 -6.83532e-06 0.000503799
139 1 77.9162 30.9918 75.4351 -0.00021616 0.00029196 0.000484892
393 2 76.243 29.7279 80.2068 -8.39829e-06 0.00037086 -0.000415935
392 1 77.3933 29.3905 77.9296 -2.0253e-05 -0.000306828 5.24348e-05
141 3 79.7224 28.9051 76.5736 2.77057e-06 -0.000132351 0.000553062
180 1 77.966 33.3665 77.1648 0.0010178 0.000159688 0.000200639
143 1 80.0461 31.2853 77.8543 -0.000539856 0.000269666 -3.43351e-05
403 1 80.424 31.8284 81.3091 -0.000219328 0.000226144 -0.000366154
138 1 80.7133 30.5692 74.7872 -0.000826894 -0.000382489 0.000286846
395 1 77.2854 34.887 79.6846 -1.72115e-05 0.000487156 -7.73558e-05
142 1 80.3074 33.5948 75.2826 -0.00036639 0.000632691 3.37501e-07
187 1 80.564 36.9729 78.8531 -8.52135e-05 0.000168332 -0.000123561
185 3 79.4116 35.5882 76.8269 0.000333815 0.000239023 -0.000126348
443 2 77.8772 36.9873 78.1598 -0.000314308 0.000741979 -3.53034e-05
448 1 80.2536 34.0563 79.0988 -6.33405e-05 0.00018484 0.000459217
178 1 76.5987 35.7738 76.1285 -5.60016e-05 0.000819439 -0.00133727
184 1 78.7076 37.9453 75.7424 0.000169831 0.000393645 0.00142438
444 1 77.8749 37.9938 80.6076 0.000465917 0.000456611 -0.000201133
730 1 79.6631 31.2926 84.8073 0.000196291 0.000643315 -0.000224292
396 1 77.688 30.3908 82.5364 -0.000745815 0.000268327 -4.57101e-05
397 1 76.0835 33.0938 81.9405 -7.77365e-05 -0.000168244 0.000406063
715 1 76.4271 30.505 87.4749 -0.00045591 -0.000719562 -0.000273201
716 1 75.6536 29.6305 84.6648 0.000439481 -0.000381859 1.01162e-06
717 2 78.0205 29.2786 85.7084 0.000454755 0.000354463 0.000413611
719 1 76.8912 32.2475 85.0428 3.75123e-05 0.000350178 9.21005e-05
721 4 77.5738 33.1681 87.5696 0.000780877 -0.000325998 2.0209e-05
399 2 80.1138 29.2197 82.3089 -0.000126832 0.000136041 -0.000591027
723 3 79.3625 31.3039 87.4489 0.000272739 -0.000353898 -0.000235754
452 2 78.5366 33.0054 82.8911 -0.000443259 0.000144048 3.92858e-05
722 1 79.0219 28.6951 88.0531 0.000170336 3.18817e-05 0.000132382
720 2 79.9979 33.5126 86.4144 0.000448308 0.000476367 -0.000229361
777 2 79.6377 37.2878 86.0025 -0.000301104 -1.49972e-05 0.000411263
446 2 75.5464 37.3649 83.8798 3.21253e-05 -0.000344584 -5.83759e-05
445 2 76.4508 35.8661 82.1046 -0.000266419 0.000152709 0.000539443
776 1 78.2991 37.5443 83.5616 0.000259694 -0.000369659 -0.000112072
775 1 76.7162 37.2313 86.3174 0.000307906 0.000474767 0.000161517
774 1 78.2468 34.9264 84.8874 -0.000126224 9.69602e-05 0.000166084
441 1 79.2635 35.2829 81.7497 0.000308831 0.000264661 -0.000201785
773 1 78.9413 35.6819 87.9115 0.000166752 -2.95083e-05 0.000577619
778 2 80.5979 36.2538 83.9639 -0.000227277 0.000249632 0.000514304
770 2 75.4896 34.6174 86.9922 1.77429e-05 -8.97706e-05 0.000272205
1073 1 79.2242 33.4364 89.9325 0.000281708 -0.000223543 0.000255219
1066 3 76.1878 32.1349 89.5261 -0.000149334 0.000412008 7.27519e-05
1067 1 76.5393 30.101 91.2805 -0.363463 -0.711359 0.0209445
1068 1 76.7714 33.1304 91.9142 -0.491225 -0.472027 -1.30411
1069 3 78.2841 30.8232 89.5182 0.000264331 5.91501e-05 -0.00021328
1071 1 79.1353 31.16 92.0172 -7.93153e-07 -5.38268e-05 0.000418163
1407 4 77.1317 29.7236 94.2279 0.236451 0.281539 -0.265039
1409 5 78.4718 32.3477 94.6685 -0.000160016 0.000321785 0.000376187
1410 3 79.3784 29.0958 93.4297 -3.4359e-05 0.000162508 0.000569726
1070 3 80.6952 30.5045 89.7759 -0.000384498 5.75049e-05 1.10532e-05
1456 1 79.0301 35.7027 94.3832 0.000224547 -6.45687e-05 -0.000133084
1461 3 78.3001 38.1311 93.312 -4.64429e-05 -0.000206042 -1.38386e-05
1116 4 76.5772 34.9327 89.3821 -6.20654e-05 -0.000102636 -0.000169182
1459 3 76.4198 36.531 93.9771 -0.335335 0.139081 0.0681482
1457 2 76.2049 33.8818 94.1838 0.1936 1.0144 1.01164
1119 1 77.7347 36.0004 91.7208 0.000195781 0.000502298 -0.000119963
1121 3 79.221 33.7267 92.6227 -0.000426639 4.03635e-05 0.000511172
1122 2 79.6331 36.9935 90.1892 0.000390139 0.000720049 0.000389808
1118 1 76.4666 37.8181 89.5118 0.00064921 0.000538623 -0.000176489
1408 4 78.9252 31.1043 97.039 -0.214171 0.239754 0.259923
1411 1 80.2268 28.9839 95.9695 1.28344 -0.393556 0.00542621
1460 4 77.4891 35.7236 96.5248 0.0500414 0.217782 0.274209
1730 2 79.5779 38.1306 98.7625 0.416515 0.0335188 0.10285
1458 4 79.845 33.7715 97.2306 -0.445698 0.185398 -0.00154533
1462 1 80.2601 37.7357 96.183 -0.000359295 -6.14302e-06 0.000214856
51 1 78.4847 38.682 69.618 0.364195 0.205106 0.415014
52 1 76.3966 40.5321 70.53 0.703694 1.14695 -0.752535
53 1 78.2671 42.79 69.8805 0.202898 0.985077 0.703712
54 1 79.1009 41.3893 72.2987 -0.00163181 -0.000926967 0.000467854
56 3 77.6222 39.2774 72.5249 -0.00199145 0.00514494 -0.000325283
222 3 76.5911 41.5046 73.0291 0.00041501 -0.00108153 -0.000165593
58 2 79.8361 40.9001 69.1793 0.817145 0.210955 0.222708
230 2 80.0949 39.2578 73.8887 0.00135604 0.00177664 0.00109317
55 1 78.0249 43.6833 74.0505 0.000196969 -0.000265874 -0.000509579
257 1 75.6238 46.6588 73.2784 -0.033863 1.78625 -0.728191
81 3 75.8016 43.3492 70.4241 0.213241 -0.0802522 -0.692299
82 1 77.5956 45.5629 71.8821 -0.34547 -1.2549 1.80502
83 5 79.0409 45.7224 69.9654 2.3011 0.527975 -3.02662
84 5 79.5214 47.9968 71.6881 -0.575662 -0.464676 -0.3176
86 2 80.011 43.963 72.2938 4.19638e-05 0.000592018 -0.000300335
263 2 80.3186 46.0368 73.9246 -0.000371964 0.000236678 -0.000384992
266 2 78.3982 47.6133 73.7858 -0.813173 -1.55727 -0.156097
498 4 79.4834 40.6025 80.5191 -0.000416205 0.000872521 0.000530717
223 2 77.2196 41.6041 77.8029 -0.000341563 -0.000164405 -8.0924e-05
224 1 78.9283 41.1132 75.4958 0.000256273 -0.000307095 -0.000129531
225 1 76.3981 39.5111 74.8615 -9.36112e-05 -5.29448e-05 4.28433e-05
227 4 79.0275 39.5512 78.1316 0.000303477 0.000623267 0.000746703
492 5 76.2261 39.147 77.7742 -0.000177122 1.71719e-05 0.000161285
495 5 76.5456 40.6314 80.1966 -0.000123578 0.000234464 0.000128794
228 4 79.8778 42.2963 78.1019 -0.000213348 0.000498848 -0.000461568
220 4 75.9376 42.1826 75.6713 -0.000335637 -0.000158498 -0.000377196
540 1 76.7659 45.905 80.7352 -0.000640595 6.47342e-05 -8.23223e-05
260 1 75.8031 44.9714 75.5061 -0.000174907 -0.000595195 -0.000355716
265 1 80.6894 43.6676 75.3116 -0.000275153 0.000715304 0.000159804
545 1 78.1017 43.3927 79.9063 8.16664e-06 0.000173853 0.000767046
544 2 78.6315 46.2543 78.7862 -3.89242e-05 -0.000129583 0.000370384
542 1 76.2511 46.9132 77.8938 -0.000195605 -0.000359279 -0.000418444
264 4 78.2673 44.1132 77.0593 -0.000131548 -0.000126327 -0.000138095
267 4 78.2829 46.5381 75.9352 0.000179187 0.000218593 -0.000100836
547 5 79.4229 46.9551 81.2761 -0.000459798 4.64814e-05 0.000632978
268 4 80.6452 45.9559 76.9318 -0.000520145 0.000272249 -0.000172328
548 1 80.6357 48.1593 78.7465 -0.000268301 0.000101704 0.000154481
829 2 80.1299 40.7788 86.6781 0.000108815 0.000336936 -0.000315977
496 1 76.4865 39.7469 83.1579 5.66989e-05 -0.000470194 0.000171038
500 4 79.5127 40.325 83.2332 0.000771884 0.000713056 0.000238093
824 1 76.6102 40.3276 87.2218 0.000490601 7.01911e-05 -0.000791051
536 2 77.7222 41.9529 82.1641 8.99586e-05 0.000665199 0.000133747
827 1 77.6085 41.9556 84.973 0.00048556 0.000356627 0.000266324
828 3 78.4074 39.3886 85.4748 -3.93174e-05 -3.73186e-05 -0.000484708
502 1 80.6365 42.8982 81.9999 0.000613721 -3.37578e-05 -0.000560346
826 3 76.0744 43.3397 83.3028 0.000105269 0.000331833 0.000266005
1229 1 76.7783 45.9405 87.9733 -5.04089e-05 -0.000495833 -0.000203062
886 4 79.6336 45.8122 86.9324 -0.000598488 0.000196074 0.000182579
885 1 79.9501 46.6622 84.056 6.40734e-05 0.000378989 -0.000494342
879 1 75.7392 45.9408 83.4073 -2.44373e-06 4.88118e-05 -3.79069e-05
884 1 77.3377 47.6286 85.4423 0.00024276 -6.85337e-05 -0.000803048
883 3 77.4749 47.9775 82.8008 2.76995e-05 0.00137466 0.000413884
882 2 77.6204 45.048 85.244 -0.000452864 3.37513e-05 0.000178207
880 1 78.4168 44.5612 82.7238 0.000698467 0.000186949 -0.000340932
1228 2 77.8529 43.4659 87.1449 0.000495259 0.000772767 0.000218753
881 4 79.7652 43.7228 85.1156 0.000351188 0.000304866 -6.22421e-05
932 2 80.5206 48.1115 86.2231 0.000547363 -0.0007023 0.000459763
1170 1 75.9567 38.7777 92.2661 -0.359041 -0.657171 -0.445719
1173 3 77.1339 42.6846 91.3066 -0.000227983 -0.000209189 -2.8083e-05
1174 2 76.6359 40.4791 90.185 -0.00042485 -7.82108e-06 0.000279811
1177 1 78.6444 41.724 88.9482 0.000482067 0.000232477 0.000478076
1180 1 79.0297 39.5179 91.1762 -0.000600726 0.000588754 0.000315688
1181 1 80.0014 42.5471 91.5451 -5.51038e-05 0.000824292 5.88458e-05
1509 1 77.8504 41.0604 93.441 -1.39289e-05 1.04053e-05 0.00048212
1225 1 75.8329 43.1318 88.9582 -3.90561e-05 0.000215619 -0.00028246
1513 3 80.3955 41.9714 94.1507 0.000484524 -0.000316265 -0.000574414
1123 1 78.9788 38.7917 88.2142 3.72561e-05 9.82039e-05 0.000118409
1515 3 79.7007 39.7982 94.689 -0.000390787 0.00025591 0.000217384
1234 1 79.03 44.5979 89.4795 -0.00070584 0.000450968 -0.000465694
1176 3 78.4291 43.5677 93.1944 -0.000159662 -0.000171601 0.00017056
1563 1 80.6175 44.8308 94.3611 1.22697e-05 -0.000311084 -0.000222537
1235 4 79.8655 45.9394 91.9774 0.000175262 0.000342948 0.000171094
1561 1 77.6384 45.7883 93.8059 -0.415374 0.803346 1.03438
1558 1 75.7884 43.3887 93.9179 0.941924 -0.267453 -0.633408
1226 3 77.2957 45.1461 91.2832 -9.61179e-05 7.77792e-05 0.000158238
1227 1 75.8169 47.4049 90.3335 0.477509 0.244653 0.294981
1231 2 78.4801 47.2931 90.4005 0.000142914 9.59845e-05 -0.000636647
1507 1 77.3798 38.7904 95.6299 0.0366582 0.183893 -0.124548
1510 5 77.0125 41.7949 96.3511 -0.0260601 -0.494417 -0.654715
1512 2 79.3795 40.5358 97.0776 0.557223 0.058529 -0.135801
1511 1 79.7803 43.1898 98.1158 -0.109381 0.076956 0.561547
1774 5 80.5317 40.8216 99.9453 -0.0162464 0.136903 0.295837
1559 2 78.9284 43.2187 95.5703 1.0127e-05 -0.000386665 -0.000336245
1567 4 80.4872 47.7911 95.2198 -0.360946 0.542536 -0.219579
1560 2 77.0632 44.5566 96.4647 0.282895 0.0588327 -0.356318
1562 1 79.5329 45.9198 96.9007 0.408522 -1.3132 0.183972
297 1 78.7864 50.2338 73.1693 1.90238 1.78979 -1.55656
295 3 75.4739 49.6836 77.744 1.56801 0.259267 -0.509126
296 4 76.6843 51.6698 76.5013 -0.758537 0.45881 0.307276
299 1 76.8956 49.4007 74.7359 -1.63645 0.0940259 1.68055
300 1 79.2866 51.6468 75.7902 -1.13968 0.406737 1.06938
585 1 77.258 51.5207 79.4125 0.188481 0.124795 -1.43572
590 1 80.2035 51.5123 79.0832 0.000585153 -0.000199527 0.000833161
582 1 77.0894 48.8014 80.2665 -0.000241774 -2.15324e-06 -0.00125847
301 1 78.262 49.2565 77.4558 -7.13696e-05 0.000203755 -0.000253184
303 1 80.3563 48.7138 75.1551 0.000303897 0.000162888 -0.000319787
588 5 80.1124 49.615 81.1689 8.91977e-05 -0.000212555 0.000731375
619 2 78.9804 53.6416 80.4362 -0.255156 0.0348461 -0.0524767
325 3 79.3008 53.8008 77.654 0.224294 -0.820514 0.40078
584 4 76.2669 52.862 81.439 -0.610435 0.944044 0.615105
586 1 75.9821 50.3179 82.7698 -0.0568455 -0.678404 0.133703
587 5 78.3829 51.4195 82.0204 -0.00017505 -0.000141452 0.000298245
928 1 79.3584 49.6472 84.0462 0.000298857 -0.000184465 0.000266058
929 1 76.706 50.315 85.9009 -0.0916118 -0.0361168 0.201212
930 2 77.9648 52.0966 84.584 0.204697 -0.120781 0.115223
931 1 79.7062 50.9322 86.7432 0.000421306 -0.000140381 0.00121744
927 2 75.8855 48.7291 87.9314 -0.308311 -0.265945 0.0732938
592 3 80.7345 52.1972 81.9711 -0.000326897 0.000114675 0.000160842
1278 1 78.5861 48.5253 88.0971 -8.34667e-05 -0.000465471 -0.000109005
968 4 79.3338 53.9744 86.3928 -0.110863 -0.362335 0.133948
967 1 79.0192 53.9899 83.2284 -1.55731 -0.518079 0.205486
1277 1 77.5592 50.0133 90.5675 0.664355 -1.22225 0.556389
1280 2 78.1763 51.6763 88.7431 -0.217481 0.904175 -0.459309
1281 2 80.1318 50.2918 89.449 -0.000345542 -0.000568399 0.000475202
1282 1 80.0215 52.1316 91.6481 0.305741 -1.454 0.213286
1608 3 80.4853 50.2267 93.8724 0.0603888 0.149316 0.083685
1276 2 78.2469 48.2725 92.7499 0.102055 0.160914 -0.146157
1321 5 80.3327 53.5679 89.3278 0.430455 -0.421195 -0.498841
2 1 83.2329 27.4168 72.432 0.371375 1.16116 0.0206961
3 1 85.7646 28.0728 71.4256 0.484801 0.295528 -0.403612
113 1 82.1029 25.5922 74.0616 -0.111255 -1.43601 0.630145
329 1 81.9576 22.0105 80.6096 -1.27043 -1.14139 2.60743
331 1 83.5537 22.7206 78.8075 2.36334 1.12695 -1.89706
362 4 84.7935 26.6882 78.2031 0.000319034 -0.00012063 5.6343e-05
358 1 81.9097 27.6507 77.9678 -0.000240094 0.000225797 0.000330124
115 4 84.8307 24.0573 75.2472 0.1467 -0.059274 0.164927
116 1 82.7603 25.1262 76.9503 0.28225 -1.05224 -0.394969
117 1 84.1449 27.2847 75.5731 -0.000325432 0.000489937 -0.000599489
355 2 82.6988 25.2553 79.6192 -0.00045996 0.000391058 -9.3467e-06
112 2 85.5527 24.263 78.0642 -0.29107 0.453024 0.0946887
360 1 85.4069 24.8844 80.6373 -0.000160653 0.000103736 -3.99017e-05
114 3 81.7627 28.1556 75.1986 3.7622e-05 -0.000174762 0.000288753
357 1 81.019 27.1826 80.8374 0.000209511 0.000561738 1.73722e-05
361 1 84.0462 27.486 80.8032 6.54418e-05 0.000660572 -0.000721033
330 5 84.1938 20.2186 82.4737 0.77289 -0.555592 -0.473502
332 3 84.8641 22.4964 81.5763 -1.21763 0.125368 0.17628
640 1 82.3535 21.8927 85.9703 0.0619375 0.3223 0.464783
641 2 82.8669 21.9024 83.5337 -0.946603 1.25462 -0.930524
643 4 84.6598 20.1688 85.6466 0.261428 -0.215467 -0.941669
646 1 85.3182 22.7126 84.2132 7.16993e-05 -0.000134869 -0.000196334
672 1 81.107 26.7129 87.1441 -0.00082833 -8.04825e-05 -0.000105941
677 1 82.6634 27.5471 83.3663 -0.000117698 9.96965e-06 -0.000384986
356 1 82.8131 24.4618 82.219 0.000105085 1.61238e-05 -0.000668024
675 3 84.0477 24.0394 86.1267 9.47245e-05 -0.000291366 4.94337e-05
683 5 84.9228 25.6807 83.6133 0.000222214 -0.000127404 0.000613973
676 4 83.6904 26.5856 85.9847 -0.000152367 4.75823e-05 0.000192834
1024 2 82.0294 24.2921 87.6896 0.000102697 -0.000418877 -0.000316925
674 1 81.5542 24.6461 84.9957 7.80088e-07 1.09528e-05 -0.00026346
680 1 84.573 28.4315 88.0187 0.000155164 -0.000498269 -0.000228935
678 4 85.8752 25.5795 87.3804 0.000226486 -0.00022699 -0.000486024
991 2 82.4356 21.4297 92.7623 0.0785663 0.528288 0.972972
993 1 81.6585 21.8982 88.6351 -0.346535 -0.616828 1.55904
994 1 84.085 20.0383 88.2884 1.08617 0.93057 -0.800464
997 1 83.1883 20.0589 90.7642 0.335765 0.740845 0.785945
998 3 85.2974 21.7724 90.2051 3.31444e-05 0.000267367 7.13009e-05
1000 1 83.4183 23.3915 91.2117 -8.75436e-05 0.000331961 -1.93153e-05
1347 1 84.709 22.8042 94.8639 -0.417516 -0.360659 0.027956
996 1 85.6786 20.954 92.994 -0.315205 0.341024 0.232566
679 2 84.0222 23.057 88.5354 0.000266032 -0.000330341 -0.000593266
1374 3 84.8954 25.6367 91.6278 0.000269768 0.000203389 -0.000322745
718 5 81.9681 28.1808 89.4601 -2.44385e-05 -0.000724726 0.000179414
1025 1 82.087 26.215 91.7657 0.000593654 0.000270788 0.000130852
1074 1 82.6743 27.7784 94.2533 1.43932e-05 -0.00036688 -0.000342409
1030 2 84.0988 27.9871 91.1343 -0.000397559 -0.000498682 7.0864e-05
1031 1 83.6498 25.7259 89.1951 -0.000180101 -1.00554e-05 2.14524e-05
1367 1 81.722 24.035 93.6378 -0.0872036 0.00688514 0.354116
1371 2 83.9777 25.3173 93.9921 0.000240215 -6.69197e-05 -0.000445916
1375 1 85.7423 27.2804 93.617 -0.000193099 0.000244915 -0.000137006
1027 3 80.8405 25.6873 89.5433 -9.65887e-05 0.000249057 -0.000426011
1368 2 83.481 24.3411 96.4702 -0.117795 0.734556 0.404566
1369 1 81.9816 26.4738 96.8715 0.355272 1.1166 -0.765798
1662 1 85.05 27.117 98.4594 -0.0705013 -0.705125 0.771407
1412 2 84.5143 27.2411 95.9858 -0.000118278 -0.000733705 -1.7357e-05
10 3 80.9633 30.3521 72.2531 -0.269611 -0.50588 -0.271731
11 1 83.4682 30.2683 71.6458 -0.767745 0.202926 2.49676
12 1 81.1159 32.1646 70.4499 0.653249 -0.0688373 0.113701
13 3 84.31 29.8351 69.4964 1.25305 -0.728014 -1.72066
14 1 84.3224 32.4499 70.1057 0.201503 0.547802 -1.31222
144 1 83.6571 30.1651 74.6261 0.000182776 -3.47054e-05 -0.00028349
145 2 82.3325 32.2416 73.2594 -0.000674581 -6.76057e-05 -0.000225232
146 1 85.4542 33.0341 72.6392 -0.000250256 -0.000226854 -0.000292104
17 2 85.9281 30.5038 72.6876 -9.9269e-05 0.00042482 0.000112621
151 2 85.7637 28.6269 74.1151 0.000230243 0.000476133 0.000557098
35 4 85.7305 37.7225 68.6805 0.566095 -0.217946 0.142877
34 1 85.233 35.3785 70.4979 -0.920058 0.377821 -0.1313
28 2 83.1151 34.1029 71.8116 0.000537916 -0.000231529 -4.67582e-05
189 1 84.9634 35.7917 73.4416 0.000225086 0.000119356 0.000106071
188 3 82.6487 34.4342 74.2054 0.000258764 0.000468212 0.000413163
31 1 81.7863 34.8223 69.5419 0.187565 -0.817818 0.022558
32 1 82.6649 36.8434 71.9597 -0.00118232 -9.46333e-05 9.12651e-05
33 4 82.9813 36.7337 68.2269 0.772563 0.354307 -0.165221
456 2 84.6196 31.6102 79.7499 0.000207566 0.000528524 0.000286524
404 2 85.6843 29.4963 80.482 -0.000271076 0.000160127 0.000525865
149 1 85.3473 32.7103 77.4761 -0.000643328 4.0179e-05 -0.000582147
405 2 82.3357 32.3988 79.2716 -0.000141243 0.00015709 0.000143932
147 2 82.1543 29.9934 76.955 8.94868e-05 0.000269592 -8.44315e-05
148 1 82.5642 32.5875 76.6595 -0.000468354 -0.000234533 -0.000330793
401 1 82.292 29.8577 79.9461 -9.39847e-05 0.000144271 0.000146609
371 1 84.5804 29.6535 77.749 0.000201838 -0.000125147 4.54254e-05
150 2 84.4441 32.7104 74.9013 -0.000510826 0.000505654 -0.000551503
191 5 84.1928 35.1502 76.0893 4.72364e-05 0.000606957 -5.50217e-05
457 1 85.9242 36.9088 79.8018 0.000178609 0.00012831 -0.000470894
454 1 83.6966 34.7318 79.0987 0.000333422 2.96579e-05 0.000346228
190 1 81.4213 36.639 74.9157 0.000206217 -0.000365247 2.77672e-05
447 3 83.0644 37.1275 80.3594 0.000441533 0.000225472 -0.00044202
186 3 81.7992 35.137 77.1491 -0.000315678 -1.93541e-05 -0.00019035
449 2 81.8912 35.0086 81.1985 0.000531045 0.000773291 0.00076252
193 1 83.3308 37.4369 77.6206 9.47734e-06 0.000658696 0.000226709
192 3 84.6347 37.7425 75.3084 -0.000683341 0.000654223 -0.000799694
731 2 82.3389 32.3175 85.6846 0.000127263 0.000175841 -0.00013184
408 1 85.5627 28.6553 83.3149 0.000499217 -0.00014443 -0.000477232
460 1 83.3412 32.7544 81.8366 -0.000172399 0.000120012 -0.000130588
725 2 83.718 29.1876 85.3865 0.000216556 -0.000203848 -0.000251191
726 5 82.0763 30.545 83.6106 4.71209e-05 0.000147761 -0.000305292
727 4 84.2863 31.3281 87.2819 0.000294301 -0.00025194 0.000100322
728 1 81.7035 29.9354 87.0984 0.000222257 0.000124136 -5.19697e-05
729 1 84.7555 31.558 84.3007 -0.000275226 -0.000153911 0.00011408
409 3 83.9115 30.1373 81.9685 0.000612379 0.000414061 0.000332868
732 4 84.1056 33.8817 87.3409 0.000204656 -5.26743e-06 8.06421e-06
780 4 82.9158 36.6391 83.1552 0.000424092 0.000755947 0.000117841
455 5 84.879 35.1578 81.8064 0.000492066 -0.00037631 0.00011421
782 1 84.0563 34.4322 84.5115 -0.000258156 -0.000271198 -0.00061597
779 1 81.8477 35.4892 86.2403 0.000186391 0.000519895 0.00035077
781 1 84.1913 37.7234 85.634 0.000399185 -0.0001843 0.000325898
453 1 81.1371 33.6878 83.6948 0.000469719 0.000397107 0.000352803
451 4 84.6139 38.2984 82.2956 0.000353542 -0.000158351 -0.000823669
1126 1 81.7919 38.0873 87.7927 0.000406412 0.000785603 0.000430391
789 2 85.8616 35.5463 86.2656 -0.000210605 -0.000500081 0.000272125
450 1 80.78 37.9515 81.6926 0.000255107 3.63032e-05 0.000191849
1072 1 81.7683 32.473 91.6806 0.000365518 -0.000365595 0.000339094
1075 1 81.8083 29.4944 92.1648 -1.94041e-05 1.19738e-06 2.22194e-05
1077 1 83.6212 30.6079 90.0383 -0.000431937 0.000125622 0.000482399
1078 2 84.5715 29.6794 93.0757 -0.000230599 -0.000143101 -0.00103663
1413 3 80.8986 30.9761 94.2639 -7.26473e-05 -0.000143092 4.199e-05
1423 1 83.5271 31.806 94.1185 0.000250903 -0.000142741 0.000367844
1076 1 81.6366 32.6329 88.4058 0.000184331 0.000273169 0.000221081
1080 5 85.6893 31.8732 91.5714 -0.000601873 -0.000350927 -0.000164088
1464 1 80.879 37.979 93.1602 -0.000603741 0.000392983 0.000132519
1130 1 83.6878 36.5454 91.2565 -0.000119709 0.000342722 0.000522372
1416 1 81.2051 33.6833 94.538 -0.000492383 8.54802e-06 -6.48457e-05
1131 1 84.403 36.4877 88.3766 0.000259023 0.000373293 1.07311e-05
1133 2 83.9048 34.1525 92.7874 -0.000859686 -0.00019594 0.000740703
1124 1 81.0575 35.3721 91.9097 -0.00020181 0.000247456 0.000300245
1125 2 81.6723 38.3064 90.5695 0.000459537 0.000699299 0.000411932
1128 5 83.803 33.7688 90.1048 -0.000181106 -1.79249e-05 -0.000270469
1127 5 81.6392 35.4649 89.145 0.000140078 0.000402355 0.000360774
1466 1 82.9817 36.2809 94.3703 -0.000393343 -0.000190459 0.00045531
1470 2 85.3307 34.7793 94.791 -0.000160466 0.000178337 0.000184115
1132 1 85.9142 36.9576 93.3597 -0.00033414 -0.000357983 0.000423589
1414 1 81.7935 31.6235 96.876 8.0638e-05 0.000141032 0.000133219
1689 1 85.8608 29.8645 98.3868 0.000575218 0.000244029 0.000212604
1691 4 81.2406 31.6977 99.5726 0.361052 0.0492439 0.185416
1692 2 82.5243 28.9261 98.5735 0.352385 0.243913 -0.345754
1693 1 84.3277 31.07 100.773 0.391463 -0.272906 -0.598581
1732 5 83.3876 33.4637 99.1534 -0.000263474 -0.000353914 -0.000345212
1415 1 83.7737 29.6797 96.235 0.000149558 -0.000725162 0.000463271
1468 2 85.3173 31.9789 96.7524 0.000119442 -0.000230194 -0.000744888
1467 4 85.155 35.2288 97.6686 -0.000149644 -8.69442e-05 -0.00033583
1417 4 83.5471 33.795 96.2731 -0.000220351 0.00021221 9.15504e-05
1736 4 85.3828 38.1466 98.4696 -0.000368052 -0.000102431 8.35242e-06
1735 3 85.1506 38.1032 101.143 0.000311699 -0.000406596 0.000103359
1734 1 83.2104 36.5295 99.2714 -0.000436825 -0.000476004 -0.000104128
1463 4 81.7698 35.5659 97.0683 -0.000701416 -0.000130262 -1.15084e-05
1465 2 83.6082 37.7937 96.4712 -0.000241957 0.000362314 -0.000611568
1731 4 80.8446 35.0474 99.8692 0.437731 0.0214858 -0.210002
1694 3 82.9744 33.1203 101.706 0.0021323 0.424001 -0.163824