LAMMPS (2 Aug 2023)
WARNING: Using I/O redirection is unreliable with parallel runs. Better to use the -in switch to read input files. (src/lammps.cpp:537)
OMP_NUM_THREADS environment is not set. Defaulting to 1 thread. (src/comm.cpp:98)
  using 1 OpenMP thread(s) per MPI task

            dimension 3
            units metal
            boundary s s s
            atom_style atomic
            timestep 0.001
            region myregion block 68.20034 114.37180000000001 16.759 59.9777 66.00113306590258 110.31544871060173  units box
            create_box 5 myregion
Created orthogonal box = (68.20034 16.759 66.001133) to (114.3718 59.9777 110.31545)
  8 by 4 by 6 MPI processor grid
            mass 1 91.224
            mass 2 63.546
            mass 3 58.693
            mass 4 26.982
            mass 5 47.867 
            pair_style eam/alloy
            pair_coeff * * ZrTiCuNiAl_Zhou04.eam.alloy Zr Cu Ni Al Ti
Reading eam/alloy potential file ZrTiCuNiAl_Zhou04.eam.alloy with DATE: 2018-03-30
            create_atoms 1 single 80.3283 27.9578 72.96696618911176
Created 1 atoms
  using lattice units in orthogonal box = (68.195723 16.754678 65.996702) to (114.37642 59.982022 110.31988)
  create_atoms CPU = 0.000 seconds
create_atoms 1 single 83.23294 27.4168 72.43195323782236
Created 1 atoms
  using lattice units in orthogonal box = (68.195723 16.754678 65.996702) to (114.37642 59.982022 110.31988)
  create_atoms CPU = 0.000 seconds
create_atoms 1 single 85.76458 28.0728 71.42556550143267
Created 1 atoms
  using lattice units in orthogonal box = (68.195723 16.754678 65.996702) to (114.37642 59.982022 110.31988)
  create_atoms CPU = 0.000 seconds
create_atoms 2 single 88.32672000000001 27.8478 70.81036229226362
Created 1 atoms
  using lattice units in orthogonal box = (68.195723 16.754678 65.996702) to (114.37642 59.982022 110.31988)
  create_atoms CPU = 0.000 seconds
create_atoms 1 single 88.82116 25.8319 73.01364103151863
Created 1 atoms
  using lattice units in orthogonal box = (68.195723 16.754678 65.996702) to (114.37642 59.982022 110.31988)
  create_atoms CPU = 0.000 seconds
create_atoms 2 single 91.15168 27.4889 72.68701994269341
Created 1 atoms
  using lattice units in orthogonal box = (68.195723 16.754678 65.996702) to (114.37642 59.982022 110.31988)
  create_atoms CPU = 0.000 seconds
create_atoms 3 single 76.76796 31.3167 72.94167541547279
Created 1 atoms
  using lattice units in orthogonal box = (68.195723 16.754678 65.996702) to (114.37642 59.982022 110.31988)
  create_atoms CPU = 0.000 seconds
create_atoms 2 single 78.32684 30.2157 71.67168790830947
Created 1 atoms
  using lattice units in orthogonal box = (68.195723 16.754678 65.996702) to (114.37642 59.982022 110.31988)
  create_atoms CPU = 0.000 seconds
create_atoms 3 single 78.58946 33.0285 70.32726739255016
Created 1 atoms
  using lattice units in orthogonal box = (68.195723 16.754678 65.996702) to (114.37642 59.982022 110.31988)
  create_atoms CPU = 0.000 seconds
create_atoms 3 single 80.96334 30.3521 72.25306727793696
Created 1 atoms
  using lattice units in orthogonal box = (68.195723 16.754678 65.996702) to (114.37642 59.982022 110.31988)
  create_atoms CPU = 0.000 seconds
create_atoms 1 single 83.46816 30.2683 71.64578028653295
Created 1 atoms
  using lattice units in orthogonal box = (68.195723 16.754678 65.996702) to (114.37642 59.982022 110.31988)
  create_atoms CPU = 0.000 seconds
create_atoms 1 single 81.11588 32.1646 70.44991736389686
Created 1 atoms
  using lattice units in orthogonal box = (68.195723 16.754678 65.996702) to (114.37642 59.982022 110.31988)
  create_atoms CPU = 0.000 seconds
create_atoms 3 single 84.30998 29.8351 69.49637295128942
Created 1 atoms
  using lattice units in orthogonal box = (68.195723 16.754678 65.996702) to (114.37642 59.982022 110.31988)
  create_atoms CPU = 0.000 seconds
create_atoms 1 single 84.32236 32.4499 70.10571610315186
Created 1 atoms
  using lattice units in orthogonal box = (68.195723 16.754678 65.996702) to (114.37642 59.982022 110.31988)
  create_atoms CPU = 0.000 seconds
create_atoms 1 single 87.14064 30.535 70.30177100286534
Created 1 atoms
  using lattice units in orthogonal box = (68.195723 16.754678 65.996702) to (114.37642 59.982022 110.31988)
  create_atoms CPU = 0.000 seconds
create_atoms 3 single 87.05856 33.2428 70.58120320916906
Created 1 atoms
  using lattice units in orthogonal box = (68.195723 16.754678 65.996702) to (114.37642 59.982022 110.31988)
  create_atoms CPU = 0.000 seconds
create_atoms 2 single 86.34262000000001 30.8024 72.42239209169055
Created 1 atoms
  using lattice units in orthogonal box = (68.195723 16.754678 65.996702) to (114.37642 59.982022 110.31988)
  create_atoms CPU = 0.000 seconds
create_atoms 1 single 88.8896 32.0486 72.94486246418339
Created 1 atoms
  using lattice units in orthogonal box = (68.195723 16.754678 65.996702) to (114.37642 59.982022 110.31988)
  create_atoms CPU = 0.000 seconds
create_atoms 1 single 90.35430000000001 30.0396 71.58317020057306
Created 1 atoms
  using lattice units in orthogonal box = (68.195723 16.754678 65.996702) to (114.37642 59.982022 110.31988)
  create_atoms CPU = 0.000 seconds
create_atoms 1 single 93.06264 31.6316 71.28255954154729
Created 1 atoms
  using lattice units in orthogonal box = (68.195723 16.754678 65.996702) to (114.37642 59.982022 110.31988)
  create_atoms CPU = 0.000 seconds
create_atoms 1 single 89.7608 32.9053 70.4687312320917
Created 1 atoms
  using lattice units in orthogonal box = (68.195723 16.754678 65.996702) to (114.37642 59.982022 110.31988)
  create_atoms CPU = 0.000 seconds
create_atoms 1 single 95.59882 33.4065 71.67292160458453
Created 1 atoms
  using lattice units in orthogonal box = (68.195723 16.754678 65.996702) to (114.37642 59.982022 110.31988)
  create_atoms CPU = 0.000 seconds
create_atoms 4 single 74.42924000000001 36.0718 71.17975151862466
Created 1 atoms
  using lattice units in orthogonal box = (68.195723 16.754678 65.996702) to (114.37642 59.982022 110.31988)
  create_atoms CPU = 0.000 seconds
create_atoms 5 single 78.47382 35.6346 69.48413879656161
Created 1 atoms
  using lattice units in orthogonal box = (68.195723 16.754678 65.996702) to (114.37642 59.982022 110.31988)
  create_atoms CPU = 0.000 seconds
create_atoms 1 single 77.41246 34.7897 71.56456194842407
Created 1 atoms
  using lattice units in orthogonal box = (68.195723 16.754678 65.996702) to (114.37642 59.982022 110.31988)
  create_atoms CPU = 0.000 seconds
create_atoms 2 single 76.59936 37.6213 70.773968252149
Created 1 atoms
  using lattice units in orthogonal box = (68.195723 16.754678 65.996702) to (114.37642 59.982022 110.31988)
  create_atoms CPU = 0.000 seconds
create_atoms 1 single 79.51388 37.3655 72.3744835530086
Created 1 atoms
  using lattice units in orthogonal box = (68.195723 16.754678 65.996702) to (114.37642 59.982022 110.31988)
  create_atoms CPU = 0.000 seconds
create_atoms 2 single 83.48258 33.6035 72.00077638968482
Created 1 atoms
  using lattice units in orthogonal box = (68.195723 16.754678 65.996702) to (114.37642 59.982022 110.31988)
  create_atoms CPU = 0.000 seconds
create_atoms 1 single 80.93531999999999 34.6329 72.10934166189112
Created 1 atoms
  using lattice units in orthogonal box = (68.195723 16.754678 65.996702) to (114.37642 59.982022 110.31988)
  create_atoms CPU = 0.000 seconds
create_atoms 3 single 80.8081 36.8803 70.58901661891119
Created 1 atoms
  using lattice units in orthogonal box = (68.195723 16.754678 65.996702) to (114.37642 59.982022 110.31988)
  create_atoms CPU = 0.000 seconds
create_atoms 1 single 81.7863 34.8223 69.54191690544413
Created 1 atoms
  using lattice units in orthogonal box = (68.195723 16.754678 65.996702) to (114.37642 59.982022 110.31988)
  create_atoms CPU = 0.000 seconds
create_atoms 1 single 83.57248 36.4868 72.07222796561605
Created 1 atoms
  using lattice units in orthogonal box = (68.195723 16.754678 65.996702) to (114.37642 59.982022 110.31988)
  create_atoms CPU = 0.000 seconds
create_atoms 4 single 82.98125999999999 36.7337 68.22689948424069
Created 1 atoms
  using lattice units in orthogonal box = (68.195723 16.754678 65.996702) to (114.37642 59.982022 110.31988)
  create_atoms CPU = 0.000 seconds
create_atoms 1 single 85.23296 35.3785 70.49792871060173
Created 1 atoms
  using lattice units in orthogonal box = (68.195723 16.754678 65.996702) to (114.37642 59.982022 110.31988)
  create_atoms CPU = 0.000 seconds
create_atoms 4 single 85.73053999999999 37.7225 68.68048848137536
Created 1 atoms
  using lattice units in orthogonal box = (68.195723 16.754678 65.996702) to (114.37642 59.982022 110.31988)
  create_atoms CPU = 0.000 seconds
create_atoms 2 single 86.13436 33.5034 72.61320378223498
Created 1 atoms
  using lattice units in orthogonal box = (68.195723 16.754678 65.996702) to (114.37642 59.982022 110.31988)
  create_atoms CPU = 0.000 seconds
create_atoms 4 single 87.31158 37.7329 71.50164343839542
Created 1 atoms
  using lattice units in orthogonal box = (68.195723 16.754678 65.996702) to (114.37642 59.982022 110.31988)
  create_atoms CPU = 0.000 seconds
create_atoms 1 single 87.90554 35.5437 69.63917329512894
Created 1 atoms
  using lattice units in orthogonal box = (68.195723 16.754678 65.996702) to (114.37642 59.982022 110.31988)
  create_atoms CPU = 0.000 seconds
create_atoms 1 single 88.39848 35.0831 72.6201947277937
Created 1 atoms
  using lattice units in orthogonal box = (68.195723 16.754678 65.996702) to (114.37642 59.982022 110.31988)
  create_atoms CPU = 0.000 seconds
create_atoms 4 single 90.40894 36.6066 68.95190166189113
Created 1 atoms
  using lattice units in orthogonal box = (68.195723 16.754678 65.996702) to (114.37642 59.982022 110.31988)
  create_atoms CPU = 0.000 seconds
create_atoms 3 single 93.50708 34.2512 72.63767209169055
Created 1 atoms
  using lattice units in orthogonal box = (68.195723 16.754678 65.996702) to (114.37642 59.982022 110.31988)
  create_atoms CPU = 0.000 seconds
create_atoms 1 single 92.31086 34.2668 69.90267025787965
Created 1 atoms
  using lattice units in orthogonal box = (68.195723 16.754678 65.996702) to (114.37642 59.982022 110.31988)
  create_atoms CPU = 0.000 seconds
create_atoms 1 single 90.99872 35.5101 71.84872332378225
Created 1 atoms
  using lattice units in orthogonal box = (68.195723 16.754678 65.996702) to (114.37642 59.982022 110.31988)
  create_atoms CPU = 0.000 seconds
create_atoms 1 single 93.89016 36.6853 71.51212985673352
Created 1 atoms
  using lattice units in orthogonal box = (68.195723 16.754678 65.996702) to (114.37642 59.982022 110.31988)
  create_atoms CPU = 0.000 seconds
create_atoms 4 single 89.85276 38.1028 70.8515883094556
Created 1 atoms
  using lattice units in orthogonal box = (68.195723 16.754678 65.996702) to (114.37642 59.982022 110.31988)
  create_atoms CPU = 0.000 seconds
create_atoms 2 single 97.11166 37.1609 72.61371782234957
Created 1 atoms
  using lattice units in orthogonal box = (68.195723 16.754678 65.996702) to (114.37642 59.982022 110.31988)
  create_atoms CPU = 0.000 seconds
create_atoms 1 single 98.56392 34.6253 72.97087289398281
Created 1 atoms
  using lattice units in orthogonal box = (68.195723 16.754678 65.996702) to (114.37642 59.982022 110.31988)
  create_atoms CPU = 0.000 seconds
create_atoms 4 single 71.96062 39.5491 72.50463851002866
Created 1 atoms
  using lattice units in orthogonal box = (68.195723 16.754678 65.996702) to (114.37642 59.982022 110.31988)
  create_atoms CPU = 0.000 seconds
create_atoms 1 single 74.80896 38.8895 72.10944446991404
Created 1 atoms
  using lattice units in orthogonal box = (68.195723 16.754678 65.996702) to (114.37642 59.982022 110.31988)
  create_atoms CPU = 0.000 seconds
create_atoms 4 single 73.71284 41.527 70.96950911174785
Created 1 atoms
  using lattice units in orthogonal box = (68.195723 16.754678 65.996702) to (114.37642 59.982022 110.31988)
  create_atoms CPU = 0.000 seconds
create_atoms 1 single 78.4847 38.682 69.61799484240687
Created 1 atoms
  using lattice units in orthogonal box = (68.195723 16.754678 65.996702) to (114.37642 59.982022 110.31988)
  create_atoms CPU = 0.000 seconds
create_atoms 1 single 76.39664 40.5321 70.53000481375359
Created 1 atoms
  using lattice units in orthogonal box = (68.195723 16.754678 65.996702) to (114.37642 59.982022 110.31988)
  create_atoms CPU = 0.000 seconds
create_atoms 1 single 78.26712 42.79 69.88046372492838
Created 1 atoms
  using lattice units in orthogonal box = (68.195723 16.754678 65.996702) to (114.37642 59.982022 110.31988)
  create_atoms CPU = 0.000 seconds
create_atoms 1 single 79.5764 40.5537 72.05300286532952
Created 1 atoms
  using lattice units in orthogonal box = (68.195723 16.754678 65.996702) to (114.37642 59.982022 110.31988)
  create_atoms CPU = 0.000 seconds
create_atoms 1 single 78.07958 42.7909 72.71066578796562
Created 1 atoms
  using lattice units in orthogonal box = (68.195723 16.754678 65.996702) to (114.37642 59.982022 110.31988)
  create_atoms CPU = 0.000 seconds
create_atoms 3 single 77.79334 39.1275 72.95421799426936
Created 1 atoms
  using lattice units in orthogonal box = (68.195723 16.754678 65.996702) to (114.37642 59.982022 110.31988)
  create_atoms CPU = 0.000 seconds
create_atoms 5 single 80.99362 38.466 68.66630097421205
Created 1 atoms
  using lattice units in orthogonal box = (68.195723 16.754678 65.996702) to (114.37642 59.982022 110.31988)
  create_atoms CPU = 0.000 seconds
create_atoms 2 single 79.83612000000001 40.9001 69.179313008596
Created 1 atoms
  using lattice units in orthogonal box = (68.195723 16.754678 65.996702) to (114.37642 59.982022 110.31988)
  create_atoms CPU = 0.000 seconds
create_atoms 3 single 84.00644000000001 43.2042 70.93455438395416
Created 1 atoms
  using lattice units in orthogonal box = (68.195723 16.754678 65.996702) to (114.37642 59.982022 110.31988)
  create_atoms CPU = 0.000 seconds
create_atoms 1 single 82.62452 41.0872 69.35819896848139
Created 1 atoms
  using lattice units in orthogonal box = (68.195723 16.754678 65.996702) to (114.37642 59.982022 110.31988)
  create_atoms CPU = 0.000 seconds
create_atoms 1 single 81.90164 39.2016 71.54317787965617
Created 1 atoms
  using lattice units in orthogonal box = (68.195723 16.754678 65.996702) to (114.37642 59.982022 110.31988)
  create_atoms CPU = 0.000 seconds
create_atoms 3 single 81.5326 41.9469 71.31329914040114
Created 1 atoms
  using lattice units in orthogonal box = (68.195723 16.754678 65.996702) to (114.37642 59.982022 110.31988)
  create_atoms CPU = 0.000 seconds
create_atoms 2 single 84.01706 41.0639 72.0991636676218
Created 1 atoms
  using lattice units in orthogonal box = (68.195723 16.754678 65.996702) to (114.37642 59.982022 110.31988)
  create_atoms CPU = 0.000 seconds
create_atoms 4 single 84.26952 38.6074 70.37651243553009
Created 1 atoms
  using lattice units in orthogonal box = (68.195723 16.754678 65.996702) to (114.37642 59.982022 110.31988)
  create_atoms CPU = 0.000 seconds
create_atoms 4 single 86.22785999999999 39.4083 72.95966681948424
Created 1 atoms
  using lattice units in orthogonal box = (68.195723 16.754678 65.996702) to (114.37642 59.982022 110.31988)
  create_atoms CPU = 0.000 seconds
create_atoms 4 single 84.88554 41.0732 68.09448275071634
Created 1 atoms
  using lattice units in orthogonal box = (68.195723 16.754678 65.996702) to (114.37642 59.982022 110.31988)
  create_atoms CPU = 0.000 seconds
create_atoms 1 single 87.9749 42.5969 68.86235587392551
Created 1 atoms
  using lattice units in orthogonal box = (68.195723 16.754678 65.996702) to (114.37642 59.982022 110.31988)
  create_atoms CPU = 0.000 seconds
create_atoms 1 single 86.07672000000001 41.3441 70.94195656160458
Created 1 atoms
  using lattice units in orthogonal box = (68.195723 16.754678 65.996702) to (114.37642 59.982022 110.31988)
  create_atoms CPU = 0.000 seconds
create_atoms 4 single 87.7431 39.7797 69.36714326647565
Created 1 atoms
  using lattice units in orthogonal box = (68.195723 16.754678 65.996702) to (114.37642 59.982022 110.31988)
  create_atoms CPU = 0.000 seconds
create_atoms 1 single 88.87684 42.876 71.90352
Created 1 atoms
  using lattice units in orthogonal box = (68.195723 16.754678 65.996702) to (114.37642 59.982022 110.31988)
  create_atoms CPU = 0.000 seconds
create_atoms 4 single 89.1152 39.9309 72.46731919770774
Created 1 atoms
  using lattice units in orthogonal box = (68.195723 16.754678 65.996702) to (114.37642 59.982022 110.31988)
  create_atoms CPU = 0.000 seconds
create_atoms 4 single 90.12052 40.8507 68.00113306590258
Created 1 atoms
  using lattice units in orthogonal box = (68.195723 16.754678 65.996702) to (114.37642 59.982022 110.31988)
  create_atoms CPU = 0.000 seconds
create_atoms 1 single 90.7402 41.115 70.82598911174784
Created 1 atoms
  using lattice units in orthogonal box = (68.195723 16.754678 65.996702) to (114.37642 59.982022 110.31988)
  create_atoms CPU = 0.000 seconds
create_atoms 5 single 92.23264 38.9926 69.99694521489971
Created 1 atoms
  using lattice units in orthogonal box = (68.195723 16.754678 65.996702) to (114.37642 59.982022 110.31988)
  create_atoms CPU = 0.000 seconds
create_atoms 1 single 93.30328 41.7899 69.88447323782236
Created 1 atoms
  using lattice units in orthogonal box = (68.195723 16.754678 65.996702) to (114.37642 59.982022 110.31988)
  create_atoms CPU = 0.000 seconds
create_atoms 4 single 92.33478000000001 38.8857 72.96922796561606
Created 1 atoms
  using lattice units in orthogonal box = (68.195723 16.754678 65.996702) to (114.37642 59.982022 110.31988)
  create_atoms CPU = 0.000 seconds
create_atoms 1 single 93.9425 41.2555 72.7973329512894
Created 1 atoms
  using lattice units in orthogonal box = (68.195723 16.754678 65.996702) to (114.37642 59.982022 110.31988)
  create_atoms CPU = 0.000 seconds
create_atoms 1 single 95.3602 39.4288 71.22128595988539
Created 1 atoms
  using lattice units in orthogonal box = (68.195723 16.754678 65.996702) to (114.37642 59.982022 110.31988)
  create_atoms CPU = 0.000 seconds
create_atoms 5 single 96.46256 42.1786 72.11252871060172
Created 1 atoms
  using lattice units in orthogonal box = (68.195723 16.754678 65.996702) to (114.37642 59.982022 110.31988)
  create_atoms CPU = 0.000 seconds
create_atoms 1 single 75.18773999999999 43.697 72.7773881948424
Created 1 atoms
  using lattice units in orthogonal box = (68.195723 16.754678 65.996702) to (114.37642 59.982022 110.31988)
  create_atoms CPU = 0.000 seconds
create_atoms 3 single 75.80164 43.3492 70.42411255014328
Created 1 atoms
  using lattice units in orthogonal box = (68.195723 16.754678 65.996702) to (114.37642 59.982022 110.31988)
  create_atoms CPU = 0.000 seconds
create_atoms 1 single 77.59562000000001 45.5629 71.8821359312321
Created 1 atoms
  using lattice units in orthogonal box = (68.195723 16.754678 65.996702) to (114.37642 59.982022 110.31988)
  create_atoms CPU = 0.000 seconds
create_atoms 5 single 79.04086 45.7224 69.96538315186247
Created 1 atoms
  using lattice units in orthogonal box = (68.195723 16.754678 65.996702) to (114.37642 59.982022 110.31988)
  create_atoms CPU = 0.000 seconds
create_atoms 5 single 79.52144 47.9968 71.68813719197708
Created 1 atoms
  using lattice units in orthogonal box = (68.195723 16.754678 65.996702) to (114.37642 59.982022 110.31988)
  create_atoms CPU = 0.000 seconds
create_atoms 4 single 83.07128 43.6221 68.14496148997135
Created 1 atoms
  using lattice units in orthogonal box = (68.195723 16.754678 65.996702) to (114.37642 59.982022 110.31988)
  create_atoms CPU = 0.000 seconds
create_atoms 2 single 80.3479 43.8363 72.05043266475644
Created 1 atoms
  using lattice units in orthogonal box = (68.195723 16.754678 65.996702) to (114.37642 59.982022 110.31988)
  create_atoms CPU = 0.000 seconds
create_atoms 1 single 81.16004000000001 43.9325 69.70651255014327
Created 1 atoms
  using lattice units in orthogonal box = (68.195723 16.754678 65.996702) to (114.37642 59.982022 110.31988)
  create_atoms CPU = 0.000 seconds
create_atoms 1 single 83.62308 45.8998 70.47664744985674
Created 1 atoms
  using lattice units in orthogonal box = (68.195723 16.754678 65.996702) to (114.37642 59.982022 110.31988)
  create_atoms CPU = 0.000 seconds
create_atoms 3 single 81.67862000000001 46.0351 71.73820469914041
Created 1 atoms
  using lattice units in orthogonal box = (68.195723 16.754678 65.996702) to (114.37642 59.982022 110.31988)
  create_atoms CPU = 0.000 seconds
create_atoms 1 single 83.30264 44.0658 73.02309936962752
Created 1 atoms
  using lattice units in orthogonal box = (68.195723 16.754678 65.996702) to (114.37642 59.982022 110.31988)
  create_atoms CPU = 0.000 seconds
create_atoms 1 single 86.00064 44.2055 69.87049134670488
Created 1 atoms
  using lattice units in orthogonal box = (68.195723 16.754678 65.996702) to (114.37642 59.982022 110.31988)
  create_atoms CPU = 0.000 seconds
create_atoms 2 single 88.86568 45.3817 72.95329272206304
Created 1 atoms
  using lattice units in orthogonal box = (68.195723 16.754678 65.996702) to (114.37642 59.982022 110.31988)
  create_atoms CPU = 0.000 seconds
create_atoms 1 single 86.74824 46.8319 71.36172171919772
Created 1 atoms
  using lattice units in orthogonal box = (68.195723 16.754678 65.996702) to (114.37642 59.982022 110.31988)
  create_atoms CPU = 0.000 seconds
create_atoms 1 single 89.05496000000001 45.3681 70.38638200573065
Created 1 atoms
  using lattice units in orthogonal box = (68.195723 16.754678 65.996702) to (114.37642 59.982022 110.31988)
  create_atoms CPU = 0.000 seconds
create_atoms 2 single 89.59524 47.7642 71.78323461318051
Created 1 atoms
  using lattice units in orthogonal box = (68.195723 16.754678 65.996702) to (114.37642 59.982022 110.31988)
  create_atoms CPU = 0.000 seconds
create_atoms 1 single 86.5169 43.9939 72.93201146131806
Created 1 atoms
  using lattice units in orthogonal box = (68.195723 16.754678 65.996702) to (114.37642 59.982022 110.31988)
  create_atoms CPU = 0.000 seconds
create_atoms 1 single 90.89884 43.7017 69.19093031518625
Created 1 atoms
  using lattice units in orthogonal box = (68.195723 16.754678 65.996702) to (114.37642 59.982022 110.31988)
  create_atoms CPU = 0.000 seconds
create_atoms 2 single 91.45938 43.6098 71.86918212034384
Created 1 atoms
  using lattice units in orthogonal box = (68.195723 16.754678 65.996702) to (114.37642 59.982022 110.31988)
  create_atoms CPU = 0.000 seconds
create_atoms 2 single 93.9681 43.8652 71.80215128939828
Created 1 atoms
  using lattice units in orthogonal box = (68.195723 16.754678 65.996702) to (114.37642 59.982022 110.31988)
  create_atoms CPU = 0.000 seconds
create_atoms 1 single 92.06716 46.1428 70.97290177650432
Created 1 atoms
  using lattice units in orthogonal box = (68.195723 16.754678 65.996702) to (114.37642 59.982022 110.31988)
  create_atoms CPU = 0.000 seconds
create_atoms 4 single 97.11468 45.2181 72.81912825214901
Created 1 atoms
  using lattice units in orthogonal box = (68.195723 16.754678 65.996702) to (114.37642 59.982022 110.31988)
  create_atoms CPU = 0.000 seconds
create_atoms 1 single 81.86784 48.3047 70.62715839541548
Created 1 atoms
  using lattice units in orthogonal box = (68.195723 16.754678 65.996702) to (114.37642 59.982022 110.31988)
  create_atoms CPU = 0.000 seconds
create_atoms 2 single 81.50628 50.0154 72.5497712320917
Created 1 atoms
  using lattice units in orthogonal box = (68.195723 16.754678 65.996702) to (114.37642 59.982022 110.31988)
  create_atoms CPU = 0.000 seconds
create_atoms 1 single 85.02538 48.9366 71.9694199426934
Created 1 atoms
  using lattice units in orthogonal box = (68.195723 16.754678 65.996702) to (114.37642 59.982022 110.31988)
  create_atoms CPU = 0.000 seconds
create_atoms 2 single 87.16246000000001 22.6264 77.52023071633239
Created 1 atoms
  using lattice units in orthogonal box = (68.195723 16.754678 65.996702) to (114.37642 59.982022 110.31988)
  create_atoms CPU = 0.000 seconds
create_atoms 1 single 89.64066 23.4217 77.2359665329513
Created 1 atoms
  using lattice units in orthogonal box = (68.195723 16.754678 65.996702) to (114.37642 59.982022 110.31988)
  create_atoms CPU = 0.000 seconds
create_atoms 1 single 75.44446 26.8078 76.60626739255015
Created 1 atoms
  using lattice units in orthogonal box = (68.195723 16.754678 65.996702) to (114.37642 59.982022 110.31988)
  create_atoms CPU = 0.000 seconds
create_atoms 3 single 77.56402 25.184 76.25353306590259
Created 1 atoms
  using lattice units in orthogonal box = (68.195723 16.754678 65.996702) to (114.37642 59.982022 110.31988)
  create_atoms CPU = 0.000 seconds
create_atoms 3 single 77.54034 27.7613 75.943361260745
Created 1 atoms
  using lattice units in orthogonal box = (68.195723 16.754678 65.996702) to (114.37642 59.982022 110.31988)
  create_atoms CPU = 0.000 seconds
create_atoms 1 single 79.73816 26.4182 75.48154762177651
Created 1 atoms
  using lattice units in orthogonal box = (68.195723 16.754678 65.996702) to (114.37642 59.982022 110.31988)
  create_atoms CPU = 0.000 seconds
create_atoms 1 single 80.30418 23.9642 77.60792595988539
Created 1 atoms
  using lattice units in orthogonal box = (68.195723 16.754678 65.996702) to (114.37642 59.982022 110.31988)
  create_atoms CPU = 0.000 seconds
create_atoms 2 single 85.5527 24.263 78.06418796561606
Created 1 atoms
  using lattice units in orthogonal box = (68.195723 16.754678 65.996702) to (114.37642 59.982022 110.31988)
  create_atoms CPU = 0.000 seconds
create_atoms 1 single 82.10288 25.5922 74.06156320916907
Created 1 atoms
  using lattice units in orthogonal box = (68.195723 16.754678 65.996702) to (114.37642 59.982022 110.31988)
  create_atoms CPU = 0.000 seconds
create_atoms 3 single 82.09518 27.8257 75.73424974212035
Created 1 atoms
  using lattice units in orthogonal box = (68.195723 16.754678 65.996702) to (114.37642 59.982022 110.31988)
  create_atoms CPU = 0.000 seconds
create_atoms 4 single 84.8307 24.0573 75.24724813753582
Created 1 atoms
  using lattice units in orthogonal box = (68.195723 16.754678 65.996702) to (114.37642 59.982022 110.31988)
  create_atoms CPU = 0.000 seconds
create_atoms 1 single 82.7603 25.1262 76.95026303724929
Created 1 atoms
  using lattice units in orthogonal box = (68.195723 16.754678 65.996702) to (114.37642 59.982022 110.31988)
  create_atoms CPU = 0.000 seconds
create_atoms 1 single 84.83384 27.1441 75.70484664756448
Created 1 atoms
  using lattice units in orthogonal box = (68.195723 16.754678 65.996702) to (114.37642 59.982022 110.31988)
  create_atoms CPU = 0.000 seconds
create_atoms 3 single 87.94726 23.8627 74.55421925501433
Created 1 atoms
  using lattice units in orthogonal box = (68.195723 16.754678 65.996702) to (114.37642 59.982022 110.31988)
  create_atoms CPU = 0.000 seconds
create_atoms 1 single 86.20902000000001 26.0614 73.73216630372494
Created 1 atoms
  using lattice units in orthogonal box = (68.195723 16.754678 65.996702) to (114.37642 59.982022 110.31988)
  create_atoms CPU = 0.000 seconds
create_atoms 4 single 87.26952000000001 25.3373 76.83028607449857
Created 1 atoms
  using lattice units in orthogonal box = (68.195723 16.754678 65.996702) to (114.37642 59.982022 110.31988)
  create_atoms CPU = 0.000 seconds
create_atoms 1 single 90.98128 23.996 75.1667494555874
Created 1 atoms
  using lattice units in orthogonal box = (68.195723 16.754678 65.996702) to (114.37642 59.982022 110.31988)
  create_atoms CPU = 0.000 seconds
create_atoms 3 single 89.29922 25.8244 75.77856
Created 1 atoms
  using lattice units in orthogonal box = (68.195723 16.754678 65.996702) to (114.37642 59.982022 110.31988)
  create_atoms CPU = 0.000 seconds
create_atoms 4 single 87.89958 27.9109 75.80878555873927
Created 1 atoms
  using lattice units in orthogonal box = (68.195723 16.754678 65.996702) to (114.37642 59.982022 110.31988)
  create_atoms CPU = 0.000 seconds
create_atoms 2 single 91.97174000000001 25.1436 77.7301646991404
Created 1 atoms
  using lattice units in orthogonal box = (68.195723 16.754678 65.996702) to (114.37642 59.982022 110.31988)
  create_atoms CPU = 0.000 seconds
create_atoms 1 single 91.45126 26.9524 75.30625994269342
Created 1 atoms
  using lattice units in orthogonal box = (68.195723 16.754678 65.996702) to (114.37642 59.982022 110.31988)
  create_atoms CPU = 0.000 seconds
create_atoms 1 single 94.11576000000001 26.6698 74.27303931232092
Created 1 atoms
  using lattice units in orthogonal box = (68.195723 16.754678 65.996702) to (114.37642 59.982022 110.31988)
  create_atoms CPU = 0.000 seconds
create_atoms 1 single 94.07446 25.0994 76.64482040114613
Created 1 atoms
  using lattice units in orthogonal box = (68.195723 16.754678 65.996702) to (114.37642 59.982022 110.31988)
  create_atoms CPU = 0.000 seconds
create_atoms 3 single 93.7699 28.4522 75.924753008596
Created 1 atoms
  using lattice units in orthogonal box = (68.195723 16.754678 65.996702) to (114.37642 59.982022 110.31988)
  create_atoms CPU = 0.000 seconds
create_atoms 1 single 96.99482 26.5229 76.71257088825216
Created 1 atoms
  using lattice units in orthogonal box = (68.195723 16.754678 65.996702) to (114.37642 59.982022 110.31988)
  create_atoms CPU = 0.000 seconds
create_atoms 3 single 99.89304000000001 27.065 77.65254464183381
Created 1 atoms
  using lattice units in orthogonal box = (68.195723 16.754678 65.996702) to (114.37642 59.982022 110.31988)
  create_atoms CPU = 0.000 seconds
create_atoms 5 single 71.61176 30.2144 77.9653894555874
Created 1 atoms
  using lattice units in orthogonal box = (68.195723 16.754678 65.996702) to (114.37642 59.982022 110.31988)
  create_atoms CPU = 0.000 seconds
create_atoms 1 single 75.22236000000001 29.3477 75.01479919770775
Created 1 atoms
  using lattice units in orthogonal box = (68.195723 16.754678 65.996702) to (114.37642 59.982022 110.31988)
  create_atoms CPU = 0.000 seconds
create_atoms 1 single 74.86934 32.2291 74.49119793696275
Created 1 atoms
  using lattice units in orthogonal box = (68.195723 16.754678 65.996702) to (114.37642 59.982022 110.31988)
  create_atoms CPU = 0.000 seconds
create_atoms 1 single 74.2043 29.3183 77.49977191977078
Created 1 atoms
  using lattice units in orthogonal box = (68.195723 16.754678 65.996702) to (114.37642 59.982022 110.31988)
  create_atoms CPU = 0.000 seconds
create_atoms 2 single 75.8222 31.5057 77.34401776504298
Created 1 atoms
  using lattice units in orthogonal box = (68.195723 16.754678 65.996702) to (114.37642 59.982022 110.31988)
  create_atoms CPU = 0.000 seconds
create_atoms 1 single 72.91392 32.2351 76.67401787965618
Created 1 atoms
  using lattice units in orthogonal box = (68.195723 16.754678 65.996702) to (114.37642 59.982022 110.31988)
  create_atoms CPU = 0.000 seconds
create_atoms 1 single 77.80712000000001 28.7317 73.73011014326649
Created 1 atoms
  using lattice units in orthogonal box = (68.195723 16.754678 65.996702) to (114.37642 59.982022 110.31988)
  create_atoms CPU = 0.000 seconds
create_atoms 1 single 80.67254000000001 30.2662 74.94663747851004
Created 1 atoms
  using lattice units in orthogonal box = (68.195723 16.754678 65.996702) to (114.37642 59.982022 110.31988)
  create_atoms CPU = 0.000 seconds
create_atoms 1 single 77.92224 30.9282 75.6822288825215
Created 1 atoms
  using lattice units in orthogonal box = (68.195723 16.754678 65.996702) to (114.37642 59.982022 110.31988)
  create_atoms CPU = 0.000 seconds
create_atoms 1 single 79.48902 32.4981 73.05363335243554
Created 1 atoms
  using lattice units in orthogonal box = (68.195723 16.754678 65.996702) to (114.37642 59.982022 110.31988)
  create_atoms CPU = 0.000 seconds
create_atoms 3 single 79.82509999999999 28.9009 76.72819770773638
Created 1 atoms
  using lattice units in orthogonal box = (68.195723 16.754678 65.996702) to (114.37642 59.982022 110.31988)
  create_atoms CPU = 0.000 seconds
create_atoms 1 single 80.31302 33.0406 76.11217203438396
Created 1 atoms
  using lattice units in orthogonal box = (68.195723 16.754678 65.996702) to (114.37642 59.982022 110.31988)
  create_atoms CPU = 0.000 seconds
create_atoms 1 single 82.09506 30.6003 78.0394112320917
Created 1 atoms
  using lattice units in orthogonal box = (68.195723 16.754678 65.996702) to (114.37642 59.982022 110.31988)
  create_atoms CPU = 0.000 seconds
create_atoms 1 single 83.28664 29.6144 74.44133604584528
Created 1 atoms
  using lattice units in orthogonal box = (68.195723 16.754678 65.996702) to (114.37642 59.982022 110.31988)
  create_atoms CPU = 0.000 seconds
create_atoms 2 single 82.38586000000001 32.2711 73.49324045845273
Created 1 atoms
  using lattice units in orthogonal box = (68.195723 16.754678 65.996702) to (114.37642 59.982022 110.31988)
  create_atoms CPU = 0.000 seconds
create_atoms 1 single 85.2229 31.798 74.18267106017191
Created 1 atoms
  using lattice units in orthogonal box = (68.195723 16.754678 65.996702) to (114.37642 59.982022 110.31988)
  create_atoms CPU = 0.000 seconds
create_atoms 2 single 84.12599999999999 29.2523 77.23041489971347
Created 1 atoms
  using lattice units in orthogonal box = (68.195723 16.754678 65.996702) to (114.37642 59.982022 110.31988)
  create_atoms CPU = 0.000 seconds
create_atoms 1 single 83.71326 31.998 76.47313100286533
Created 1 atoms
  using lattice units in orthogonal box = (68.195723 16.754678 65.996702) to (114.37642 59.982022 110.31988)
  create_atoms CPU = 0.000 seconds
create_atoms 1 single 86.72864 32.9023 77.13285008595989
Created 1 atoms
  using lattice units in orthogonal box = (68.195723 16.754678 65.996702) to (114.37642 59.982022 110.31988)
  create_atoms CPU = 0.000 seconds
create_atoms 2 single 86.12888000000001 30.0268 76.38194028653295
Created 1 atoms
  using lattice units in orthogonal box = (68.195723 16.754678 65.996702) to (114.37642 59.982022 110.31988)
  create_atoms CPU = 0.000 seconds
create_atoms 2 single 85.74502 28.9799 73.91362246418339
Created 1 atoms
  using lattice units in orthogonal box = (68.195723 16.754678 65.996702) to (114.37642 59.982022 110.31988)
  create_atoms CPU = 0.000 seconds
create_atoms 1 single 88.6638 28.7673 73.38642292263611
Created 1 atoms
  using lattice units in orthogonal box = (68.195723 16.754678 65.996702) to (114.37642 59.982022 110.31988)
  create_atoms CPU = 0.000 seconds
create_atoms 1 single 88.22416 30.7481 75.29135277936963
Created 1 atoms
  using lattice units in orthogonal box = (68.195723 16.754678 65.996702) to (114.37642 59.982022 110.31988)
  create_atoms CPU = 0.000 seconds
create_atoms 4 single 90.60188000000001 28.8362 76.96743197707737
Created 1 atoms
  using lattice units in orthogonal box = (68.195723 16.754678 65.996702) to (114.37642 59.982022 110.31988)
  create_atoms CPU = 0.000 seconds
create_atoms 4 single 91.05404 32.3234 75.95672630372493
Created 1 atoms
  using lattice units in orthogonal box = (68.195723 16.754678 65.996702) to (114.37642 59.982022 110.31988)
  create_atoms CPU = 0.000 seconds
create_atoms 3 single 95.05392 32.5755 74.02414108882523
Created 1 atoms
  using lattice units in orthogonal box = (68.195723 16.754678 65.996702) to (114.37642 59.982022 110.31988)
  create_atoms CPU = 0.000 seconds
create_atoms 4 single 91.41334 29.9702 74.74873203438396
Created 1 atoms
  using lattice units in orthogonal box = (68.195723 16.754678 65.996702) to (114.37642 59.982022 110.31988)
  create_atoms CPU = 0.000 seconds
create_atoms 1 single 93.53528000000001 29.499 73.38046005730659
Created 1 atoms
  using lattice units in orthogonal box = (68.195723 16.754678 65.996702) to (114.37642 59.982022 110.31988)
  create_atoms CPU = 0.000 seconds
create_atoms 1 single 92.06742 32.4645 73.49827805157592
Created 1 atoms
  using lattice units in orthogonal box = (68.195723 16.754678 65.996702) to (114.37642 59.982022 110.31988)
  create_atoms CPU = 0.000 seconds
create_atoms 1 single 94.63248 31.1311 75.96762395415473
Created 1 atoms
  using lattice units in orthogonal box = (68.195723 16.754678 65.996702) to (114.37642 59.982022 110.31988)
  create_atoms CPU = 0.000 seconds
create_atoms 4 single 93.10116000000001 30.311 77.61018773638969
Created 1 atoms
  using lattice units in orthogonal box = (68.195723 16.754678 65.996702) to (114.37642 59.982022 110.31988)
  create_atoms CPU = 0.000 seconds
create_atoms 3 single 96.11498 28.8756 75.37956206303726
Created 1 atoms
  using lattice units in orthogonal box = (68.195723 16.754678 65.996702) to (114.37642 59.982022 110.31988)
  create_atoms CPU = 0.000 seconds
create_atoms 3 single 97.21506 31.13 75.84908630372493
Created 1 atoms
  using lattice units in orthogonal box = (68.195723 16.754678 65.996702) to (114.37642 59.982022 110.31988)
  create_atoms CPU = 0.000 seconds
create_atoms 1 single 96.30316 30.6328 73.17350750716332
Created 1 atoms
  using lattice units in orthogonal box = (68.195723 16.754678 65.996702) to (114.37642 59.982022 110.31988)
  create_atoms CPU = 0.000 seconds
create_atoms 1 single 98.90115999999999 29.262 75.2548559312321
Created 1 atoms
  using lattice units in orthogonal box = (68.195723 16.754678 65.996702) to (114.37642 59.982022 110.31988)
  create_atoms CPU = 0.000 seconds
create_atoms 3 single 97.63992 33.015 74.4986001146132
Created 1 atoms
  using lattice units in orthogonal box = (68.195723 16.754678 65.996702) to (114.37642 59.982022 110.31988)
  create_atoms CPU = 0.000 seconds
create_atoms 5 single 99.37895999999999 31.6255 73.76722383954154
Created 1 atoms
  using lattice units in orthogonal box = (68.195723 16.754678 65.996702) to (114.37642 59.982022 110.31988)
  create_atoms CPU = 0.000 seconds
create_atoms 5 single 98.58798 29.3114 77.7256411461318
Created 1 atoms
  using lattice units in orthogonal box = (68.195723 16.754678 65.996702) to (114.37642 59.982022 110.31988)
  create_atoms CPU = 0.000 seconds
create_atoms 1 single 99.86982 32.1264 76.7531800573066
Created 1 atoms
  using lattice units in orthogonal box = (68.195723 16.754678 65.996702) to (114.37642 59.982022 110.31988)
  create_atoms CPU = 0.000 seconds
create_atoms 1 single 101.7115 29.8015 77.8518893982808
Created 1 atoms
  using lattice units in orthogonal box = (68.195723 16.754678 65.996702) to (114.37642 59.982022 110.31988)
  create_atoms CPU = 0.000 seconds
create_atoms 3 single 102.83692 32.2138 77.2368918051576
Created 1 atoms
  using lattice units in orthogonal box = (68.195723 16.754678 65.996702) to (114.37642 59.982022 110.31988)
  create_atoms CPU = 0.000 seconds
create_atoms 1 single 71.82684 37.0667 75.58301914040116
Created 1 atoms
  using lattice units in orthogonal box = (68.195723 16.754678 65.996702) to (114.37642 59.982022 110.31988)
  create_atoms CPU = 0.000 seconds
create_atoms 5 single 70.48956 38.0601 77.58037340974212
Created 1 atoms
  using lattice units in orthogonal box = (68.195723 16.754678 65.996702) to (114.37642 59.982022 110.31988)
  create_atoms CPU = 0.000 seconds
create_atoms 1 single 73.60604000000001 34.632 75.40721742120344
Created 1 atoms
  using lattice units in orthogonal box = (68.195723 16.754678 65.996702) to (114.37642 59.982022 110.31988)
  create_atoms CPU = 0.000 seconds
create_atoms 2 single 75.00174 34.8164 73.57980481375358
Created 1 atoms
  using lattice units in orthogonal box = (68.195723 16.754678 65.996702) to (114.37642 59.982022 110.31988)
  create_atoms CPU = 0.000 seconds
create_atoms 1 single 73.53620000000001 37.1427 73.67377134670488
Created 1 atoms
  using lattice units in orthogonal box = (68.195723 16.754678 65.996702) to (114.37642 59.982022 110.31988)
  create_atoms CPU = 0.000 seconds
create_atoms 2 single 74.55792000000001 36.612 77.31245570200574
Created 1 atoms
  using lattice units in orthogonal box = (68.195723 16.754678 65.996702) to (114.37642 59.982022 110.31988)
  create_atoms CPU = 0.000 seconds
create_atoms 1 single 76.2699 36.4563 75.98643782234957
Created 1 atoms
  using lattice units in orthogonal box = (68.195723 16.754678 65.996702) to (114.37642 59.982022 110.31988)
  create_atoms CPU = 0.000 seconds
create_atoms 3 single 72.6618 35.1056 77.65089971346706
Created 1 atoms
  using lattice units in orthogonal box = (68.195723 16.754678 65.996702) to (114.37642 59.982022 110.31988)
  create_atoms CPU = 0.000 seconds
create_atoms 1 single 77.17836 33.6774 76.82576252148998
Created 1 atoms
  using lattice units in orthogonal box = (68.195723 16.754678 65.996702) to (114.37642 59.982022 110.31988)
  create_atoms CPU = 0.000 seconds
create_atoms 5 single 77.43532 33.6528 74.13054739255016
Created 1 atoms
  using lattice units in orthogonal box = (68.195723 16.754678 65.996702) to (114.37642 59.982022 110.31988)
  create_atoms CPU = 0.000 seconds
create_atoms 3 single 79.71966 35.2129 74.073591747851
Created 1 atoms
  using lattice units in orthogonal box = (68.195723 16.754678 65.996702) to (114.37642 59.982022 110.31988)
  create_atoms CPU = 0.000 seconds
create_atoms 1 single 77.03196 36.686 73.5189424641834
Created 1 atoms
  using lattice units in orthogonal box = (68.195723 16.754678 65.996702) to (114.37642 59.982022 110.31988)
  create_atoms CPU = 0.000 seconds
create_atoms 1 single 79.86512 37.7594 75.43055484240688
Created 1 atoms
  using lattice units in orthogonal box = (68.195723 16.754678 65.996702) to (114.37642 59.982022 110.31988)
  create_atoms CPU = 0.000 seconds
create_atoms 3 single 78.78656000000001 35.4865 75.94881008595989
Created 1 atoms
  using lattice units in orthogonal box = (68.195723 16.754678 65.996702) to (114.37642 59.982022 110.31988)
  create_atoms CPU = 0.000 seconds
create_atoms 3 single 81.54958 35.6021 76.57830361031519
Created 1 atoms
  using lattice units in orthogonal box = (68.195723 16.754678 65.996702) to (114.37642 59.982022 110.31988)
  create_atoms CPU = 0.000 seconds
create_atoms 1 single 79.03384000000001 37.6388 77.9013400573066
Created 1 atoms
  using lattice units in orthogonal box = (68.195723 16.754678 65.996702) to (114.37642 59.982022 110.31988)
  create_atoms CPU = 0.000 seconds
create_atoms 3 single 82.12478 34.035 74.99865833810888
Created 1 atoms
  using lattice units in orthogonal box = (68.195723 16.754678 65.996702) to (114.37642 59.982022 110.31988)
  create_atoms CPU = 0.000 seconds
create_atoms 1 single 84.65438 34.5699 74.55247151862464
Created 1 atoms
  using lattice units in orthogonal box = (68.195723 16.754678 65.996702) to (114.37642 59.982022 110.31988)
  create_atoms CPU = 0.000 seconds
create_atoms 1 single 82.41068 36.6018 74.39928756446992
Created 1 atoms
  using lattice units in orthogonal box = (68.195723 16.754678 65.996702) to (114.37642 59.982022 110.31988)
  create_atoms CPU = 0.000 seconds
create_atoms 5 single 84.55424000000001 35.2075 77.13336412607451
Created 1 atoms
  using lattice units in orthogonal box = (68.195723 16.754678 65.996702) to (114.37642 59.982022 110.31988)
  create_atoms CPU = 0.000 seconds
create_atoms 3 single 85.34958 37.2817 75.99126979942695
Created 1 atoms
  using lattice units in orthogonal box = (68.195723 16.754678 65.996702) to (114.37642 59.982022 110.31988)
  create_atoms CPU = 0.000 seconds
create_atoms 1 single 83.13858 37.9208 77.0666417191977
Created 1 atoms
  using lattice units in orthogonal box = (68.195723 16.754678 65.996702) to (114.37642 59.982022 110.31988)
  create_atoms CPU = 0.000 seconds
create_atoms 1 single 86.64918 36.5758 74.01992595988538
Created 1 atoms
  using lattice units in orthogonal box = (68.195723 16.754678 65.996702) to (114.37642 59.982022 110.31988)
  create_atoms CPU = 0.000 seconds
create_atoms 3 single 87.1387 35.477 76.55085386819484
Created 1 atoms
  using lattice units in orthogonal box = (68.195723 16.754678 65.996702) to (114.37642 59.982022 110.31988)
  create_atoms CPU = 0.000 seconds
create_atoms 1 single 88.14178 33.7033 75.14515977077363
Created 1 atoms
  using lattice units in orthogonal box = (68.195723 16.754678 65.996702) to (114.37642 59.982022 110.31988)
  create_atoms CPU = 0.000 seconds
create_atoms 1 single 89.62198 36.2661 76.3171712320917
Created 1 atoms
  using lattice units in orthogonal box = (68.195723 16.754678 65.996702) to (114.37642 59.982022 110.31988)
  create_atoms CPU = 0.000 seconds
create_atoms 5 single 90.29038 37.4234 73.82047839541548
Created 1 atoms
  using lattice units in orthogonal box = (68.195723 16.754678 65.996702) to (114.37642 59.982022 110.31988)
  create_atoms CPU = 0.000 seconds
create_atoms 2 single 88.07192 37.8451 77.50522074498568
Created 1 atoms
  using lattice units in orthogonal box = (68.195723 16.754678 65.996702) to (114.37642 59.982022 110.31988)
  create_atoms CPU = 0.000 seconds
create_atoms 4 single 91.17718 34.7122 74.79818269340976
Created 1 atoms
  using lattice units in orthogonal box = (68.195723 16.754678 65.996702) to (114.37642 59.982022 110.31988)
  create_atoms CPU = 0.000 seconds
create_atoms 3 single 93.98502 33.8951 75.52719438395415
Created 1 atoms
  using lattice units in orthogonal box = (68.195723 16.754678 65.996702) to (114.37642 59.982022 110.31988)
  create_atoms CPU = 0.000 seconds
create_atoms 1 single 93.47166 36.3191 74.38561409742121
Created 1 atoms
  using lattice units in orthogonal box = (68.195723 16.754678 65.996702) to (114.37642 59.982022 110.31988)
  create_atoms CPU = 0.000 seconds
create_atoms 2 single 94.74282000000001 35.6021 77.51395942693411
Created 1 atoms
  using lattice units in orthogonal box = (68.195723 16.754678 65.996702) to (114.37642 59.982022 110.31988)
  create_atoms CPU = 0.000 seconds
create_atoms 4 single 92.29458 34.6323 77.60535575931232
Created 1 atoms
  using lattice units in orthogonal box = (68.195723 16.754678 65.996702) to (114.37642 59.982022 110.31988)
  create_atoms CPU = 0.000 seconds
create_atoms 4 single 92.4723 37.1684 76.55342406876792
Created 1 atoms
  using lattice units in orthogonal box = (68.195723 16.754678 65.996702) to (114.37642 59.982022 110.31988)
  create_atoms CPU = 0.000 seconds
create_atoms 1 single 96.83234 33.6573 76.61983805157594
Created 1 atoms
  using lattice units in orthogonal box = (68.195723 16.754678 65.996702) to (114.37642 59.982022 110.31988)
  create_atoms CPU = 0.000 seconds
create_atoms 1 single 96.14902000000001 35.3001 73.95268951289398
Created 1 atoms
  using lattice units in orthogonal box = (68.195723 16.754678 65.996702) to (114.37642 59.982022 110.31988)
  create_atoms CPU = 0.000 seconds
create_atoms 1 single 96.5585 36.5891 76.49328137535817
Created 1 atoms
  using lattice units in orthogonal box = (68.195723 16.754678 65.996702) to (114.37642 59.982022 110.31988)
  create_atoms CPU = 0.000 seconds
create_atoms 2 single 98.3262 37.8352 75.3593088825215
Created 1 atoms
  using lattice units in orthogonal box = (68.195723 16.754678 65.996702) to (114.37642 59.982022 110.31988)
  create_atoms CPU = 0.000 seconds
create_atoms 1 single 100.17458 37.0879 74.24713169054442
Created 1 atoms
  using lattice units in orthogonal box = (68.195723 16.754678 65.996702) to (114.37642 59.982022 110.31988)
  create_atoms CPU = 0.000 seconds
create_atoms 1 single 99.30908 35.224 76.2590846991404
Created 1 atoms
  using lattice units in orthogonal box = (68.195723 16.754678 65.996702) to (114.37642 59.982022 110.31988)
  create_atoms CPU = 0.000 seconds
create_atoms 1 single 100.89620000000001 37.682 77.74034269340976
Created 1 atoms
  using lattice units in orthogonal box = (68.195723 16.754678 65.996702) to (114.37642 59.982022 110.31988)
  create_atoms CPU = 0.000 seconds
create_atoms 1 single 101.319 33.8858 75.20561088825215
Created 1 atoms
  using lattice units in orthogonal box = (68.195723 16.754678 65.996702) to (114.37642 59.982022 110.31988)
  create_atoms CPU = 0.000 seconds
create_atoms 2 single 102.57386 36.2935 76.36312641833811
Created 1 atoms
  using lattice units in orthogonal box = (68.195723 16.754678 65.996702) to (114.37642 59.982022 110.31988)
  create_atoms CPU = 0.000 seconds
create_atoms 1 single 71.1409 41.0096 77.60103782234957
Created 1 atoms
  using lattice units in orthogonal box = (68.195723 16.754678 65.996702) to (114.37642 59.982022 110.31988)
  create_atoms CPU = 0.000 seconds
create_atoms 1 single 72.88028 42.625 76.09819014326648
Created 1 atoms
  using lattice units in orthogonal box = (68.195723 16.754678 65.996702) to (114.37642 59.982022 110.31988)
  create_atoms CPU = 0.000 seconds
create_atoms 5 single 71.68858 39.9821 75.15852481375359
Created 1 atoms
  using lattice units in orthogonal box = (68.195723 16.754678 65.996702) to (114.37642 59.982022 110.31988)
  create_atoms CPU = 0.000 seconds
create_atoms 2 single 74.25888 38.9231 75.71317409742122
Created 1 atoms
  using lattice units in orthogonal box = (68.195723 16.754678 65.996702) to (114.37642 59.982022 110.31988)
  create_atoms CPU = 0.000 seconds
create_atoms 1 single 74.26812 41.1907 74.13208951289398
Created 1 atoms
  using lattice units in orthogonal box = (68.195723 16.754678 65.996702) to (114.37642 59.982022 110.31988)
  create_atoms CPU = 0.000 seconds
create_atoms 4 single 75.65082 41.3066 77.0338459598854
Created 1 atoms
  using lattice units in orthogonal box = (68.195723 16.754678 65.996702) to (114.37642 59.982022 110.31988)
  create_atoms CPU = 0.000 seconds
create_atoms 1 single 73.3646 38.8 78.01843839541549
Created 1 atoms
  using lattice units in orthogonal box = (68.195723 16.754678 65.996702) to (114.37642 59.982022 110.31988)
  create_atoms CPU = 0.000 seconds
create_atoms 3 single 76.35866 41.0826 73.11644905444126
Created 1 atoms
  using lattice units in orthogonal box = (68.195723 16.754678 65.996702) to (114.37642 59.982022 110.31988)
  create_atoms CPU = 0.000 seconds
create_atoms 2 single 77.17132 42.2039 75.42798464183382
Created 1 atoms
  using lattice units in orthogonal box = (68.195723 16.754678 65.996702) to (114.37642 59.982022 110.31988)
  create_atoms CPU = 0.000 seconds
create_atoms 1 single 79.43696 40.7561 74.95260034383955
Created 1 atoms
  using lattice units in orthogonal box = (68.195723 16.754678 65.996702) to (114.37642 59.982022 110.31988)
  create_atoms CPU = 0.000 seconds
create_atoms 1 single 76.81402 39.2145 75.17559094555874
Created 1 atoms
  using lattice units in orthogonal box = (68.195723 16.754678 65.996702) to (114.37642 59.982022 110.31988)
  create_atoms CPU = 0.000 seconds
create_atoms 5 single 81.1914 39.6525 77.80973810888253
Created 1 atoms
  using lattice units in orthogonal box = (68.195723 16.754678 65.996702) to (114.37642 59.982022 110.31988)
  create_atoms CPU = 0.000 seconds
create_atoms 4 single 78.43638 40.6155 77.69222853868196
Created 1 atoms
  using lattice units in orthogonal box = (68.195723 16.754678 65.996702) to (114.37642 59.982022 110.31988)
  create_atoms CPU = 0.000 seconds
create_atoms 4 single 80.10226 42.5956 77.17068343839541
Created 1 atoms
  using lattice units in orthogonal box = (68.195723 16.754678 65.996702) to (114.37642 59.982022 110.31988)
  create_atoms CPU = 0.000 seconds
create_atoms 2 single 82.31494 41.3286 76.55095667621777
Created 1 atoms
  using lattice units in orthogonal box = (68.195723 16.754678 65.996702) to (114.37642 59.982022 110.31988)
  create_atoms CPU = 0.000 seconds
create_atoms 2 single 81.57624 39.1731 74.47680481375359
Created 1 atoms
  using lattice units in orthogonal box = (68.195723 16.754678 65.996702) to (114.37642 59.982022 110.31988)
  create_atoms CPU = 0.000 seconds
create_atoms 4 single 84.3377 38.8988 74.03976790830946
Created 1 atoms
  using lattice units in orthogonal box = (68.195723 16.754678 65.996702) to (114.37642 59.982022 110.31988)
  create_atoms CPU = 0.000 seconds
create_atoms 1 single 82.52706 41.4257 73.93171667621777
Created 1 atoms
  using lattice units in orthogonal box = (68.195723 16.754678 65.996702) to (114.37642 59.982022 110.31988)
  create_atoms CPU = 0.000 seconds
create_atoms 3 single 83.80326000000001 43.175 75.90151839541548
Created 1 atoms
  using lattice units in orthogonal box = (68.195723 16.754678 65.996702) to (114.37642 59.982022 110.31988)
  create_atoms CPU = 0.000 seconds
create_atoms 1 single 85.6406 41.9581 74.50497421203438
Created 1 atoms
  using lattice units in orthogonal box = (68.195723 16.754678 65.996702) to (114.37642 59.982022 110.31988)
  create_atoms CPU = 0.000 seconds
create_atoms 1 single 84.81778 40.2049 76.57933169054442
Created 1 atoms
  using lattice units in orthogonal box = (68.195723 16.754678 65.996702) to (114.37642 59.982022 110.31988)
  create_atoms CPU = 0.000 seconds
create_atoms 3 single 86.2878 42.6567 77.06232378223496
Created 1 atoms
  using lattice units in orthogonal box = (68.195723 16.754678 65.996702) to (114.37642 59.982022 110.31988)
  create_atoms CPU = 0.000 seconds
create_atoms 4 single 88.60092 38.898 74.98025570200573
Created 1 atoms
  using lattice units in orthogonal box = (68.195723 16.754678 65.996702) to (114.37642 59.982022 110.31988)
  create_atoms CPU = 0.000 seconds
create_atoms 4 single 88.41402 41.5253 74.19017604584528
Created 1 atoms
  using lattice units in orthogonal box = (68.195723 16.754678 65.996702) to (114.37642 59.982022 110.31988)
  create_atoms CPU = 0.000 seconds
create_atoms 1 single 90.74066 38.8503 77.68420951289399
Created 1 atoms
  using lattice units in orthogonal box = (68.195723 16.754678 65.996702) to (114.37642 59.982022 110.31988)
  create_atoms CPU = 0.000 seconds
create_atoms 1 single 87.91524 40.5581 76.94728160458453
Created 1 atoms
  using lattice units in orthogonal box = (68.195723 16.754678 65.996702) to (114.37642 59.982022 110.31988)
  create_atoms CPU = 0.000 seconds
create_atoms 3 single 90.3392 41.5585 76.71945902578797
Created 1 atoms
  using lattice units in orthogonal box = (68.195723 16.754678 65.996702) to (114.37642 59.982022 110.31988)
  create_atoms CPU = 0.000 seconds
create_atoms 2 single 94.5124 38.4776 76.09387220630373
Created 1 atoms
  using lattice units in orthogonal box = (68.195723 16.754678 65.996702) to (114.37642 59.982022 110.31988)
  create_atoms CPU = 0.000 seconds
create_atoms 1 single 91.73062 39.9479 75.47681845272207
Created 1 atoms
  using lattice units in orthogonal box = (68.195723 16.754678 65.996702) to (114.37642 59.982022 110.31988)
  create_atoms CPU = 0.000 seconds
create_atoms 2 single 91.4755 41.6623 73.55862636103151
Created 1 atoms
  using lattice units in orthogonal box = (68.195723 16.754678 65.996702) to (114.37642 59.982022 110.31988)
  create_atoms CPU = 0.000 seconds
create_atoms 1 single 94.85646 41.1203 75.82646853868195
Created 1 atoms
  using lattice units in orthogonal box = (68.195723 16.754678 65.996702) to (114.37642 59.982022 110.31988)
  create_atoms CPU = 0.000 seconds
create_atoms 1 single 92.98192 42.6405 77.18908607449858
Created 1 atoms
  using lattice units in orthogonal box = (68.195723 16.754678 65.996702) to (114.37642 59.982022 110.31988)
  create_atoms CPU = 0.000 seconds
create_atoms 1 single 95.56158 38.5913 74.00707495702005
Created 1 atoms
  using lattice units in orthogonal box = (68.195723 16.754678 65.996702) to (114.37642 59.982022 110.31988)
  create_atoms CPU = 0.000 seconds
create_atoms 1 single 98.42045999999999 39.7139 73.28094189111748
Created 1 atoms
  using lattice units in orthogonal box = (68.195723 16.754678 65.996702) to (114.37642 59.982022 110.31988)
  create_atoms CPU = 0.000 seconds
create_atoms 1 single 99.90428 40.2776 76.21179300859599
Created 1 atoms
  using lattice units in orthogonal box = (68.195723 16.754678 65.996702) to (114.37642 59.982022 110.31988)
  create_atoms CPU = 0.000 seconds
create_atoms 3 single 97.02114 40.9215 74.73690911174785
Created 1 atoms
  using lattice units in orthogonal box = (68.195723 16.754678 65.996702) to (114.37642 59.982022 110.31988)
  create_atoms CPU = 0.000 seconds
create_atoms 1 single 99.26794 42.7653 74.55596699140402
Created 1 atoms
  using lattice units in orthogonal box = (68.195723 16.754678 65.996702) to (114.37642 59.982022 110.31988)
  create_atoms CPU = 0.000 seconds
create_atoms 1 single 97.5359 39.3547 77.1728424068768
Created 1 atoms
  using lattice units in orthogonal box = (68.195723 16.754678 65.996702) to (114.37642 59.982022 110.31988)
  create_atoms CPU = 0.000 seconds
create_atoms 1 single 98.21668000000001 42.5179 77.27122968481376
Created 1 atoms
  using lattice units in orthogonal box = (68.195723 16.754678 65.996702) to (114.37642 59.982022 110.31988)
  create_atoms CPU = 0.000 seconds
create_atoms 3 single 100.93378 42.6566 77.358616504298
Created 1 atoms
  using lattice units in orthogonal box = (68.195723 16.754678 65.996702) to (114.37642 59.982022 110.31988)
  create_atoms CPU = 0.000 seconds
create_atoms 2 single 102.28386 41.8831 75.93544504297995
Created 1 atoms
  using lattice units in orthogonal box = (68.195723 16.754678 65.996702) to (114.37642 59.982022 110.31988)
  create_atoms CPU = 0.000 seconds
create_atoms 1 single 102.42592 39.0005 75.96978292263611
Created 1 atoms
  using lattice units in orthogonal box = (68.195723 16.754678 65.996702) to (114.37642 59.982022 110.31988)
  create_atoms CPU = 0.000 seconds
create_atoms 1 single 75.62376 46.6588 73.27837169054442
Created 1 atoms
  using lattice units in orthogonal box = (68.195723 16.754678 65.996702) to (114.37642 59.982022 110.31988)
  create_atoms CPU = 0.000 seconds
create_atoms 4 single 72.32598 43.353 73.19591965616047
Created 1 atoms
  using lattice units in orthogonal box = (68.195723 16.754678 65.996702) to (114.37642 59.982022 110.31988)
  create_atoms CPU = 0.000 seconds
create_atoms 2 single 73.25136 45.8356 73.85615277936962
Created 1 atoms
  using lattice units in orthogonal box = (68.195723 16.754678 65.996702) to (114.37642 59.982022 110.31988)
  create_atoms CPU = 0.000 seconds
create_atoms 1 single 75.42328 44.3004 75.64994716332379
Created 1 atoms
  using lattice units in orthogonal box = (68.195723 16.754678 65.996702) to (114.37642 59.982022 110.31988)
  create_atoms CPU = 0.000 seconds
create_atoms 1 single 74.69186 47.9439 75.6054312893983
Created 1 atoms
  using lattice units in orthogonal box = (68.195723 16.754678 65.996702) to (114.37642 59.982022 110.31988)
  create_atoms CPU = 0.000 seconds
create_atoms 1 single 73.22608000000001 45.644 76.60451965616048
Created 1 atoms
  using lattice units in orthogonal box = (68.195723 16.754678 65.996702) to (114.37642 59.982022 110.31988)
  create_atoms CPU = 0.000 seconds
create_atoms 2 single 80.50102 45.9814 73.37285226361031
Created 1 atoms
  using lattice units in orthogonal box = (68.195723 16.754678 65.996702) to (114.37642 59.982022 110.31988)
  create_atoms CPU = 0.000 seconds
create_atoms 4 single 78.11304 44.5104 74.91785123209169
Created 1 atoms
  using lattice units in orthogonal box = (68.195723 16.754678 65.996702) to (114.37642 59.982022 110.31988)
  create_atoms CPU = 0.000 seconds
create_atoms 1 single 80.92066000000001 43.515 74.74544217765045
Created 1 atoms
  using lattice units in orthogonal box = (68.195723 16.754678 65.996702) to (114.37642 59.982022 110.31988)
  create_atoms CPU = 0.000 seconds
create_atoms 2 single 78.3982 47.6133 73.78583209169055
Created 1 atoms
  using lattice units in orthogonal box = (68.195723 16.754678 65.996702) to (114.37642 59.982022 110.31988)
  create_atoms CPU = 0.000 seconds
create_atoms 4 single 77.5354 46.6746 76.05274899713467
Created 1 atoms
  using lattice units in orthogonal box = (68.195723 16.754678 65.996702) to (114.37642 59.982022 110.31988)
  create_atoms CPU = 0.000 seconds
create_atoms 4 single 80.25062000000001 46.2135 75.67061157593125
Created 1 atoms
  using lattice units in orthogonal box = (68.195723 16.754678 65.996702) to (114.37642 59.982022 110.31988)
  create_atoms CPU = 0.000 seconds
create_atoms 1 single 82.32542000000001 44.5059 77.62756229226362
Created 1 atoms
  using lattice units in orthogonal box = (68.195723 16.754678 65.996702) to (114.37642 59.982022 110.31988)
  create_atoms CPU = 0.000 seconds
create_atoms 2 single 85.1864 46.2748 73.13865558739256
Created 1 atoms
  using lattice units in orthogonal box = (68.195723 16.754678 65.996702) to (114.37642 59.982022 110.31988)
  create_atoms CPU = 0.000 seconds
create_atoms 2 single 85.67576000000001 44.7489 75.32836366762177
Created 1 atoms
  using lattice units in orthogonal box = (68.195723 16.754678 65.996702) to (114.37642 59.982022 110.31988)
  create_atoms CPU = 0.000 seconds
create_atoms 5 single 83.11378 45.71 75.28446464183382
Created 1 atoms
  using lattice units in orthogonal box = (68.195723 16.754678 65.996702) to (114.37642 59.982022 110.31988)
  create_atoms CPU = 0.000 seconds
create_atoms 1 single 83.11212 47.4973 77.50727690544413
Created 1 atoms
  using lattice units in orthogonal box = (68.195723 16.754678 65.996702) to (114.37642 59.982022 110.31988)
  create_atoms CPU = 0.000 seconds
create_atoms 1 single 85.94258 47.2321 76.65283942693411
Created 1 atoms
  using lattice units in orthogonal box = (68.195723 16.754678 65.996702) to (114.37642 59.982022 110.31988)
  create_atoms CPU = 0.000 seconds
create_atoms 1 single 83.41572 47.8484 73.63604080229226
Created 1 atoms
  using lattice units in orthogonal box = (68.195723 16.754678 65.996702) to (114.37642 59.982022 110.31988)
  create_atoms CPU = 0.000 seconds
create_atoms 4 single 85.4332 44.8632 77.8909564469914
Created 1 atoms
  using lattice units in orthogonal box = (68.195723 16.754678 65.996702) to (114.37642 59.982022 110.31988)
  create_atoms CPU = 0.000 seconds
create_atoms 1 single 88.36036 43.6332 76.25929031518625
Created 1 atoms
  using lattice units in orthogonal box = (68.195723 16.754678 65.996702) to (114.37642 59.982022 110.31988)
  create_atoms CPU = 0.000 seconds
create_atoms 1 single 90.53892 43.7588 74.83838063037251
Created 1 atoms
  using lattice units in orthogonal box = (68.195723 16.754678 65.996702) to (114.37642 59.982022 110.31988)
  create_atoms CPU = 0.000 seconds
create_atoms 1 single 87.80272000000001 46.4619 74.99619094555875
Created 1 atoms
  using lattice units in orthogonal box = (68.195723 16.754678 65.996702) to (114.37642 59.982022 110.31988)
  create_atoms CPU = 0.000 seconds
create_atoms 1 single 90.48724 47.2915 74.54671426934098
Created 1 atoms
  using lattice units in orthogonal box = (68.195723 16.754678 65.996702) to (114.37642 59.982022 110.31988)
  create_atoms CPU = 0.000 seconds
create_atoms 1 single 90.80398 45.7655 77.07486636103152
Created 1 atoms
  using lattice units in orthogonal box = (68.195723 16.754678 65.996702) to (114.37642 59.982022 110.31988)
  create_atoms CPU = 0.000 seconds
create_atoms 3 single 89.02364 47.5653 77.54202601719197
Created 1 atoms
  using lattice units in orthogonal box = (68.195723 16.754678 65.996702) to (114.37642 59.982022 110.31988)
  create_atoms CPU = 0.000 seconds
create_atoms 1 single 93.33672 43.6428 74.43845742120344
Created 1 atoms
  using lattice units in orthogonal box = (68.195723 16.754678 65.996702) to (114.37642 59.982022 110.31988)
  create_atoms CPU = 0.000 seconds
create_atoms 2 single 95.46566 43.9345 77.0488559312321
Created 1 atoms
  using lattice units in orthogonal box = (68.195723 16.754678 65.996702) to (114.37642 59.982022 110.31988)
  create_atoms CPU = 0.000 seconds
create_atoms 3 single 91.49616 45.6364 73.20949031518626
Created 1 atoms
  using lattice units in orthogonal box = (68.195723 16.754678 65.996702) to (114.37642 59.982022 110.31988)
  create_atoms CPU = 0.000 seconds
create_atoms 1 single 94.54636 46.0682 73.59861868194842
Created 1 atoms
  using lattice units in orthogonal box = (68.195723 16.754678 65.996702) to (114.37642 59.982022 110.31988)
  create_atoms CPU = 0.000 seconds
create_atoms 2 single 94.82388 48.0012 75.67307896848138
Created 1 atoms
  using lattice units in orthogonal box = (68.195723 16.754678 65.996702) to (114.37642 59.982022 110.31988)
  create_atoms CPU = 0.000 seconds
create_atoms 1 single 93.33444 45.9408 76.1659406303725
Created 1 atoms
  using lattice units in orthogonal box = (68.195723 16.754678 65.996702) to (114.37642 59.982022 110.31988)
  create_atoms CPU = 0.000 seconds
create_atoms 2 single 96.27716 45.9422 76.28293616045846
Created 1 atoms
  using lattice units in orthogonal box = (68.195723 16.754678 65.996702) to (114.37642 59.982022 110.31988)
  create_atoms CPU = 0.000 seconds
create_atoms 1 single 96.2385 43.4905 74.55946246418338
Created 1 atoms
  using lattice units in orthogonal box = (68.195723 16.754678 65.996702) to (114.37642 59.982022 110.31988)
  create_atoms CPU = 0.000 seconds
create_atoms 1 single 98.771 45.2538 75.98643782234957
Created 1 atoms
  using lattice units in orthogonal box = (68.195723 16.754678 65.996702) to (114.37642 59.982022 110.31988)
  create_atoms CPU = 0.000 seconds
create_atoms 1 single 97.20374 47.738 74.69989822349571
Created 1 atoms
  using lattice units in orthogonal box = (68.195723 16.754678 65.996702) to (114.37642 59.982022 110.31988)
  create_atoms CPU = 0.000 seconds
create_atoms 1 single 100.77676 47.5014 77.38658028653296
Created 1 atoms
  using lattice units in orthogonal box = (68.195723 16.754678 65.996702) to (114.37642 59.982022 110.31988)
  create_atoms CPU = 0.000 seconds
create_atoms 1 single 101.8353 44.8487 76.45832664756448
Created 1 atoms
  using lattice units in orthogonal box = (68.195723 16.754678 65.996702) to (114.37642 59.982022 110.31988)
  create_atoms CPU = 0.000 seconds
create_atoms 3 single 75.47394 49.6836 77.74404378223495
Created 1 atoms
  using lattice units in orthogonal box = (68.195723 16.754678 65.996702) to (114.37642 59.982022 110.31988)
  create_atoms CPU = 0.000 seconds
create_atoms 4 single 76.68432 51.6698 76.50130040114614
Created 1 atoms
  using lattice units in orthogonal box = (68.195723 16.754678 65.996702) to (114.37642 59.982022 110.31988)
  create_atoms CPU = 0.000 seconds
create_atoms 1 single 78.78642 50.2338 73.1692923782235
Created 1 atoms
  using lattice units in orthogonal box = (68.195723 16.754678 65.996702) to (114.37642 59.982022 110.31988)
  create_atoms CPU = 0.000 seconds
create_atoms 2 single 79.79336 48.8866 76.40270750716333
Created 1 atoms
  using lattice units in orthogonal box = (68.195723 16.754678 65.996702) to (114.37642 59.982022 110.31988)
  create_atoms CPU = 0.000 seconds
create_atoms 1 single 76.89564 49.4007 74.73588103151863
Created 1 atoms
  using lattice units in orthogonal box = (68.195723 16.754678 65.996702) to (114.37642 59.982022 110.31988)
  create_atoms CPU = 0.000 seconds
create_atoms 1 single 79.28664 51.6468 75.79017730659027
Created 1 atoms
  using lattice units in orthogonal box = (68.195723 16.754678 65.996702) to (114.37642 59.982022 110.31988)
  create_atoms CPU = 0.000 seconds
create_atoms 1 single 78.08696 49.0251 77.87697455587393
Created 1 atoms
  using lattice units in orthogonal box = (68.195723 16.754678 65.996702) to (114.37642 59.982022 110.31988)
  create_atoms CPU = 0.000 seconds
create_atoms 1 single 82.24432 50.3793 77.45998521489972
Created 1 atoms
  using lattice units in orthogonal box = (68.195723 16.754678 65.996702) to (114.37642 59.982022 110.31988)
  create_atoms CPU = 0.000 seconds
create_atoms 1 single 81.23904 48.578 74.71686154727794
Created 1 atoms
  using lattice units in orthogonal box = (68.195723 16.754678 65.996702) to (114.37642 59.982022 110.31988)
  create_atoms CPU = 0.000 seconds
create_atoms 1 single 81.70678000000001 51.7656 74.65733570200574
Created 1 atoms
  using lattice units in orthogonal box = (68.195723 16.754678 65.996702) to (114.37642 59.982022 110.31988)
  create_atoms CPU = 0.000 seconds
create_atoms 1 single 84.2193 51.1033 73.42189169054441
Created 1 atoms
  using lattice units in orthogonal box = (68.195723 16.754678 65.996702) to (114.37642 59.982022 110.31988)
  create_atoms CPU = 0.000 seconds
create_atoms 1 single 84.2593 49.911 75.96690429799428
Created 1 atoms
  using lattice units in orthogonal box = (68.195723 16.754678 65.996702) to (114.37642 59.982022 110.31988)
  create_atoms CPU = 0.000 seconds
create_atoms 3 single 84.11458 53.0581 76.26165489971348
Created 1 atoms
  using lattice units in orthogonal box = (68.195723 16.754678 65.996702) to (114.37642 59.982022 110.31988)
  create_atoms CPU = 0.000 seconds
create_atoms 2 single 86.1496 51.9529 75.87643323782235
Created 1 atoms
  using lattice units in orthogonal box = (68.195723 16.754678 65.996702) to (114.37642 59.982022 110.31988)
  create_atoms CPU = 0.000 seconds
create_atoms 2 single 86.36382 48.9744 74.87333535816619
Created 1 atoms
  using lattice units in orthogonal box = (68.195723 16.754678 65.996702) to (114.37642 59.982022 110.31988)
  create_atoms CPU = 0.000 seconds
create_atoms 2 single 87.92986 48.6181 73.43155564469915
Created 1 atoms
  using lattice units in orthogonal box = (68.195723 16.754678 65.996702) to (114.37642 59.982022 110.31988)
  create_atoms CPU = 0.000 seconds
create_atoms 1 single 87.6557 51.1766 74.32351805157593
Created 1 atoms
  using lattice units in orthogonal box = (68.195723 16.754678 65.996702) to (114.37642 59.982022 110.31988)
  create_atoms CPU = 0.000 seconds
create_atoms 1 single 89.88212 49.3802 76.26895426934098
Created 1 atoms
  using lattice units in orthogonal box = (68.195723 16.754678 65.996702) to (114.37642 59.982022 110.31988)
  create_atoms CPU = 0.000 seconds
create_atoms 1 single 90.23638 50.1837 73.59995518624642
Created 1 atoms
  using lattice units in orthogonal box = (68.195723 16.754678 65.996702) to (114.37642 59.982022 110.31988)
  create_atoms CPU = 0.000 seconds
create_atoms 3 single 91.29574 51.9073 75.79069134670488
Created 1 atoms
  using lattice units in orthogonal box = (68.195723 16.754678 65.996702) to (114.37642 59.982022 110.31988)
  create_atoms CPU = 0.000 seconds
create_atoms 1 single 87.55272000000001 50.0215 77.5956918051576
Created 1 atoms
  using lattice units in orthogonal box = (68.195723 16.754678 65.996702) to (114.37642 59.982022 110.31988)
  create_atoms CPU = 0.000 seconds
create_atoms 1 single 89.63694 52.1587 77.35851369627507
Created 1 atoms
  using lattice units in orthogonal box = (68.195723 16.754678 65.996702) to (114.37642 59.982022 110.31988)
  create_atoms CPU = 0.000 seconds
create_atoms 1 single 92.52696 48.3001 73.2624364469914
Created 1 atoms
  using lattice units in orthogonal box = (68.195723 16.754678 65.996702) to (114.37642 59.982022 110.31988)
  create_atoms CPU = 0.000 seconds
create_atoms 1 single 93.39748 50.7228 75.06702567335245
Created 1 atoms
  using lattice units in orthogonal box = (68.195723 16.754678 65.996702) to (114.37642 59.982022 110.31988)
  create_atoms CPU = 0.000 seconds
create_atoms 2 single 92.65982 48.6452 76.38461329512894
Created 1 atoms
  using lattice units in orthogonal box = (68.195723 16.754678 65.996702) to (114.37642 59.982022 110.31988)
  create_atoms CPU = 0.000 seconds
create_atoms 1 single 94.65528 52.6065 77.39511335243553
Created 1 atoms
  using lattice units in orthogonal box = (68.195723 16.754678 65.996702) to (114.37642 59.982022 110.31988)
  create_atoms CPU = 0.000 seconds
create_atoms 1 single 95.38974 49.7156 77.79493375358167
Created 1 atoms
  using lattice units in orthogonal box = (68.195723 16.754678 65.996702) to (114.37642 59.982022 110.31988)
  create_atoms CPU = 0.000 seconds
create_atoms 2 single 97.40264 51.5285 77.51323977077365
Created 1 atoms
  using lattice units in orthogonal box = (68.195723 16.754678 65.996702) to (114.37642 59.982022 110.31988)
  create_atoms CPU = 0.000 seconds
create_atoms 3 single 96.16568000000001 50.0082 75.46180848137537
Created 1 atoms
  using lattice units in orthogonal box = (68.195723 16.754678 65.996702) to (114.37642 59.982022 110.31988)
  create_atoms CPU = 0.000 seconds
create_atoms 1 single 97.96418000000001 48.3009 77.62848756446992
Created 1 atoms
  using lattice units in orthogonal box = (68.195723 16.754678 65.996702) to (114.37642 59.982022 110.31988)
  create_atoms CPU = 0.000 seconds
create_atoms 3 single 79.30080000000001 53.8008 77.65398395415474
Created 1 atoms
  using lattice units in orthogonal box = (68.195723 16.754678 65.996702) to (114.37642 59.982022 110.31988)
  create_atoms CPU = 0.000 seconds
create_atoms 1 single 82.08036 53.3953 77.49093042979943
Created 1 atoms
  using lattice units in orthogonal box = (68.195723 16.754678 65.996702) to (114.37642 59.982022 110.31988)
  create_atoms CPU = 0.000 seconds
create_atoms 1 single 87.35086 53.7632 77.82916882521491
Created 1 atoms
  using lattice units in orthogonal box = (68.195723 16.754678 65.996702) to (114.37642 59.982022 110.31988)
  create_atoms CPU = 0.000 seconds
create_atoms 1 single 80.27136 22.9583 82.9181659598854
Created 1 atoms
  using lattice units in orthogonal box = (68.195723 16.754678 65.996702) to (114.37642 59.982022 110.31988)
  create_atoms CPU = 0.000 seconds
create_atoms 1 single 81.95756 22.0105 80.6096118051576
Created 1 atoms
  using lattice units in orthogonal box = (68.195723 16.754678 65.996702) to (114.37642 59.982022 110.31988)
  create_atoms CPU = 0.000 seconds
create_atoms 5 single 84.19384000000001 20.2186 82.47372687679085
Created 1 atoms
  using lattice units in orthogonal box = (68.195723 16.754678 65.996702) to (114.37642 59.982022 110.31988)
  create_atoms CPU = 0.000 seconds
create_atoms 1 single 83.5537 22.7206 78.80748997134671
Created 1 atoms
  using lattice units in orthogonal box = (68.195723 16.754678 65.996702) to (114.37642 59.982022 110.31988)
  create_atoms CPU = 0.000 seconds
create_atoms 3 single 84.86408 22.4964 81.57631564469915
Created 1 atoms
  using lattice units in orthogonal box = (68.195723 16.754678 65.996702) to (114.37642 59.982022 110.31988)
  create_atoms CPU = 0.000 seconds
create_atoms 1 single 86.795 22.0881 80.0005770773639
Created 1 atoms
  using lattice units in orthogonal box = (68.195723 16.754678 65.996702) to (114.37642 59.982022 110.31988)
  create_atoms CPU = 0.000 seconds
create_atoms 3 single 87.33508 23.2419 82.37513398280804
Created 1 atoms
  using lattice units in orthogonal box = (68.195723 16.754678 65.996702) to (114.37642 59.982022 110.31988)
  create_atoms CPU = 0.000 seconds
create_atoms 1 single 87.11110000000001 20.6711 82.71008252148997
Created 1 atoms
  using lattice units in orthogonal box = (68.195723 16.754678 65.996702) to (114.37642 59.982022 110.31988)
  create_atoms CPU = 0.000 seconds
create_atoms 1 single 89.8494 19.9973 82.26800802292264
Created 1 atoms
  using lattice units in orthogonal box = (68.195723 16.754678 65.996702) to (114.37642 59.982022 110.31988)
  create_atoms CPU = 0.000 seconds
create_atoms 2 single 89.47586 21.891 79.68690979942694
Created 1 atoms
  using lattice units in orthogonal box = (68.195723 16.754678 65.996702) to (114.37642 59.982022 110.31988)
  create_atoms CPU = 0.000 seconds
create_atoms 1 single 92.37454 21.4044 81.81626957020057
Created 1 atoms
  using lattice units in orthogonal box = (68.195723 16.754678 65.996702) to (114.37642 59.982022 110.31988)
  create_atoms CPU = 0.000 seconds
create_atoms 1 single 89.95414 22.8857 82.31180424068768
Created 1 atoms
  using lattice units in orthogonal box = (68.195723 16.754678 65.996702) to (114.37642 59.982022 110.31988)
  create_atoms CPU = 0.000 seconds
create_atoms 2 single 92.8923 22.7563 78.08269340974213
Created 1 atoms
  using lattice units in orthogonal box = (68.195723 16.754678 65.996702) to (114.37642 59.982022 110.31988)
  create_atoms CPU = 0.000 seconds
create_atoms 3 single 94.73172 19.695 82.52687862464184
Created 1 atoms
  using lattice units in orthogonal box = (68.195723 16.754678 65.996702) to (114.37642 59.982022 110.31988)
  create_atoms CPU = 0.000 seconds
create_atoms 1 single 94.82784 21.7182 80.73472916905445
Created 1 atoms
  using lattice units in orthogonal box = (68.195723 16.754678 65.996702) to (114.37642 59.982022 110.31988)
  create_atoms CPU = 0.000 seconds
create_atoms 1 single 96.26608 23.2778 78.6221271060172
Created 1 atoms
  using lattice units in orthogonal box = (68.195723 16.754678 65.996702) to (114.37642 59.982022 110.31988)
  create_atoms CPU = 0.000 seconds
create_atoms 5 single 96.71972 23.2256 82.95250383954156
Created 1 atoms
  using lattice units in orthogonal box = (68.195723 16.754678 65.996702) to (114.37642 59.982022 110.31988)
  create_atoms CPU = 0.000 seconds
create_atoms 1 single 98.15526000000001 22.0763 81.24342326647565
Created 1 atoms
  using lattice units in orthogonal box = (68.195723 16.754678 65.996702) to (114.37642 59.982022 110.31988)
  create_atoms CPU = 0.000 seconds
create_atoms 1 single 77.13218 24.9875 78.82260275071634
Created 1 atoms
  using lattice units in orthogonal box = (68.195723 16.754678 65.996702) to (114.37642 59.982022 110.31988)
  create_atoms CPU = 0.000 seconds
create_atoms 1 single 73.90598 28.2806 80.1940617765043
Created 1 atoms
  using lattice units in orthogonal box = (68.195723 16.754678 65.996702) to (114.37642 59.982022 110.31988)
  create_atoms CPU = 0.000 seconds
create_atoms 3 single 75.99672 27.4364 79.18407575931232
Created 1 atoms
  using lattice units in orthogonal box = (68.195723 16.754678 65.996702) to (114.37642 59.982022 110.31988)
  create_atoms CPU = 0.000 seconds
create_atoms 3 single 76.57224000000001 27.9242 81.98898704871061
Created 1 atoms
  using lattice units in orthogonal box = (68.195723 16.754678 65.996702) to (114.37642 59.982022 110.31988)
  create_atoms CPU = 0.000 seconds
create_atoms 2 single 78.49736 25.1478 81.71942441260745
Created 1 atoms
  using lattice units in orthogonal box = (68.195723 16.754678 65.996702) to (114.37642 59.982022 110.31988)
  create_atoms CPU = 0.000 seconds
create_atoms 1 single 78.71588 27.7161 80.84329444126075
Created 1 atoms
  using lattice units in orthogonal box = (68.195723 16.754678 65.996702) to (114.37642 59.982022 110.31988)
  create_atoms CPU = 0.000 seconds
create_atoms 1 single 75.67304 25.5586 80.78767530085962
Created 1 atoms
  using lattice units in orthogonal box = (68.195723 16.754678 65.996702) to (114.37642 59.982022 110.31988)
  create_atoms CPU = 0.000 seconds
create_atoms 1 single 79.31008 26.6962 78.3029081948424
Created 1 atoms
  using lattice units in orthogonal box = (68.195723 16.754678 65.996702) to (114.37642 59.982022 110.31988)
  create_atoms CPU = 0.000 seconds
create_atoms 1 single 80.21516 24.4049 80.39217283667622
Created 1 atoms
  using lattice units in orthogonal box = (68.195723 16.754678 65.996702) to (114.37642 59.982022 110.31988)
  create_atoms CPU = 0.000 seconds
create_atoms 2 single 82.607 25.1159 79.68701260744986
Created 1 atoms
  using lattice units in orthogonal box = (68.195723 16.754678 65.996702) to (114.37642 59.982022 110.31988)
  create_atoms CPU = 0.000 seconds
create_atoms 1 single 83.37270000000001 24.3133 82.41964985673353
Created 1 atoms
  using lattice units in orthogonal box = (68.195723 16.754678 65.996702) to (114.37642 59.982022 110.31988)
  create_atoms CPU = 0.000 seconds
create_atoms 1 single 81.78641999999999 27.061 81.12663335243553
Created 1 atoms
  using lattice units in orthogonal box = (68.195723 16.754678 65.996702) to (114.37642 59.982022 110.31988)
  create_atoms CPU = 0.000 seconds
create_atoms 1 single 82.21602 27.5635 78.37240641833812
Created 1 atoms
  using lattice units in orthogonal box = (68.195723 16.754678 65.996702) to (114.37642 59.982022 110.31988)
  create_atoms CPU = 0.000 seconds
create_atoms 2 single 81.1316 25.7353 82.98200974212035
Created 1 atoms
  using lattice units in orthogonal box = (68.195723 16.754678 65.996702) to (114.37642 59.982022 110.31988)
  create_atoms CPU = 0.000 seconds
create_atoms 1 single 85.516 24.8861 80.60663037249284
Created 1 atoms
  using lattice units in orthogonal box = (68.195723 16.754678 65.996702) to (114.37642 59.982022 110.31988)
  create_atoms CPU = 0.000 seconds
create_atoms 1 single 84.97008000000001 27.28 82.12119816618913
Created 1 atoms
  using lattice units in orthogonal box = (68.195723 16.754678 65.996702) to (114.37642 59.982022 110.31988)
  create_atoms CPU = 0.000 seconds
create_atoms 4 single 85.10106 26.8071 78.43779232091691
Created 1 atoms
  using lattice units in orthogonal box = (68.195723 16.754678 65.996702) to (114.37642 59.982022 110.31988)
  create_atoms CPU = 0.000 seconds
[...]
  create_atoms CPU = 0.000 seconds
create_atoms 1 single 108.4328 44.3799 103.75694097421204
Created 1 atoms
  using lattice units in orthogonal box = (68.195723 16.754678 65.996702) to (114.37642 59.982022 110.31988)
  create_atoms CPU = 0.000 seconds
create_atoms 1 single 96.648 48.5367 104.79324584527221
Created 1 atoms
  using lattice units in orthogonal box = (68.195723 16.754678 65.996702) to (114.37642 59.982022 110.31988)
  create_atoms CPU = 0.000 seconds
create_atoms 1 single 101.5605 49.2028 103.63254326647566
Created 1 atoms
  using lattice units in orthogonal box = (68.195723 16.754678 65.996702) to (114.37642 59.982022 110.31988)
  create_atoms CPU = 0.000 seconds
group surface id  1 2 3 4 5 6 7 8 9 10 11 12 13 14 15 16 19 20 21 22 23 24 25 26 31 33 34 35 38 40 42 44 46 47 48 49 50 51 52 53 57 58 60 66 67 69 72 74 75 78 79 80 81 82 83 84 85 87 88 91 93 94 95 97 99 100 101 102 103 104 105 106 107 108 109 110 111 112 113 115 116 118 119 121 126 127 129 130 131 132 133 134 136 137 158 162 164 165 167 170 171 172 173 174 175 176 179 210 213 214 215 216 217 248 251 255 256 257 258 259 261 262 266 286 291 292 293 294 295 296 297 299 300 304 305 307 308 310 311 313 314 316 317 318 320 322 323 324 325 326 327 328 329 330 331 332 333 335 336 337 338 340 341 342 343 345 346 347 348 350 352 354 381 382 383 384 387 388 389 390 431 432 433 435 436 437 483 484 485 487 488 489 491 529 530 531 532 533 534 538 539 541 576 577 578 581 583 584 585 586 615 616 618 619 620 621 622 623 625 626 629 630 632 633 634 635 636 637 638 639 640 641 643 644 645 649 651 652 654 657 660 661 663 664 665 666 667 668 671 673 702 707 708 709 710 711 712 713 762 763 766 767 769 771 813 816 817 818 820 864 865 868 871 875 876 877 878 922 923 924 925 926 927 929 930 962 963 964 965 966 967 968 970 971 973 976 977 979 981 983 987 988 989 990 991 992 993 994 995 996 997 1001 1002 1004 1006 1007 1008 1012 1013 1014 1016 1017 1019 1020 1021 1022 1023 1057 1058 1063 1064 1065 1067 1068 1108 1109 1111 1112 1114 1115 1117 1120 1165 1169 1170 1171 1172 1175 1217 1218 1221 1223 1224 1227 1270 1271 1273 1275 1276 1277 1280 1282 1316 1317 1318 1319 1320 1321 1322 1323 1325 1326 1331 1332 1333 1334 1335 1337 1340 1342 1343 1344 1345 1346 1347 1348 1349 1350 1351 1352 1353 1354 1357 1358 1359 1360 1362 1363 1364 1365 1366 1367 1368 1369 1370 1399 1400 1401 1404 1405 1406 1407 1408 1411 1452 1454 1455 1457 1458 1459 1460 1499 1500 1504 1505 1506 1507 1508 1510 1511 1512 1553 1555 1556 1557 1558 1560 1561 1562 1567 1568 1604 1605 1606 1607 1608 1609 1610 1612 1615 1637 1640 1641 1642 1643 1644 1645 1647 1648 1649 1650 1651 1652 1653 1654 1655 1656 1657 1658 1659 1660 1661 1662 1663 1664 1665 1667 1669 1670 1672 1673 1676 1682 1684 1685 1686 1687 1688 1690 1691 1692 1693 1694 1695 1696 1699 1720 1726 1727 1728 1729 1730 1731 1733 1766 1770 1771 1772 1773 1774 1775 1778 1811 1812 1813 1814 1815 1816 1817 1818 1819 1823 1825 1826 1846 1851 1852 1853 1854 1855 1857 1858 1860 1862 1863 1864 1865 1868 1869 1870 1871 1872 1873 1874 1875 1876 1877 1878 1879 1880 1881 1882 1883 1884 1885 1886 1887 1888 1891 1892 1893 1894 1897 1898 1899 1900 1901 1902 1903 1904 1906 1908 1911 1914 1915 1916 1917 1923 1924 1925 1928 1929 1930 1932 1933 1934 1935 1936 1937 1939 1940 1941 1946 1948 1949 1954 1956 1958 1961 1962 1964 1965 1966 1967 1970 1971 1972 1973 1974 1976 1978 1979 1980 1981 1982 1983 1984 1985 
618 atoms in group surface
            fix freeze surface setforce 0 0 0 
            minimize 0 1e-4 100000 100000
Neighbor list info ...
  update: every = 1 steps, delay = 0 steps, check = yes
  max neighbors/atom: 2000, page size: 100000
  master list distance cutoff = 9.1553683
  ghost atom cutoff = 9.1553683
  binsize = 4.5776842, bins = 11 10 10
  1 neighbor lists, perpetual/occasional/extra = 1 0 0
  (1) pair eam/alloy, perpetual
      attributes: half, newton on
      pair build: half/bin/atomonly/newton
      stencil: half/bin/3d
      bin: standard
Per MPI rank memory allocation (min/avg/max) = 4.075 | 4.362 | 4.474 Mbytes
   Step          Temp          E_pair         E_mol          TotEng         Press          Volume    
         0   0             -9958.7256      0             -9958.7256      25008.385      66720.207    
      1006   0             -10411.278      0             -10411.278     -2635.0587      66720.207    
Loop time of 0.292719 on 192 procs for 1006 steps with 1985 atoms

99.8% CPU use with 192 MPI tasks x 1 OpenMP threads

Minimization stats:
  Stopping criterion = linesearch alpha is zero
  Energy initial, next-to-last, final = 
     -9958.72560168951  -10411.2779637266  -10411.2779637266
  Force two-norm initial, final = 60.800291 0.029452907
  Force max component initial, final = 4.1705662 0.0099906737
  Final line search alpha, max atom move = 7.6293945e-06 7.6222792e-08
  Iterations, force evaluations = 1006 1927

MPI task timing breakdown:
Section |  min time  |  avg time  |  max time  |%varavg| %total
---------------------------------------------------------------
Pair    | 0.090974   | 0.1236     | 0.17989    |   7.4 | 42.22
Neigh   | 2.7833e-05 | 0.00061143 | 0.0017158  |   0.0 |  0.21
Comm    | 0.023265   | 0.10176    | 0.14015    |   8.2 | 34.76
Output  | 0          | 0          | 0          |   0.0 |  0.00
Modify  | 8.9527e-05 | 0.00013932 | 0.00022478 |   0.0 |  0.05
Other   |            | 0.06661    |            |       | 22.76

Nlocal:        10.3385 ave          23 max           0 min
Histogram: 52 16 8 10 9 16 19 20 26 16
Nghost:        362.656 ave         834 max          37 min
Histogram: 15 23 35 30 33 20 8 14 2 12
Neighs:         681.12 ave        2069 max           0 min
Histogram: 69 17 12 19 15 13 15 14 12 6

Total # of neighbors = 130775
Ave neighs/atom = 65.881612
Neighbor list builds = 34
Dangerous builds = 0
            unfix freeze
            compute force all property/atom fx fy fz
            dump fcal all custom 1 dump.force id type x y z fx fy fz
            run 1 
WARNING: No fixes with time integration, atoms won't move (src/verlet.cpp:60)
Per MPI rank memory allocation (min/avg/max) = 2.95 | 3.238 | 3.349 Mbytes
   Step          Temp          E_pair         E_mol          TotEng         Press          Volume    
      1006   0             -10411.278      0             -10411.278     -2635.0587      66720.207    
      1007   0             -10411.278      0             -10411.278     -2635.0587      66720.207    
Loop time of 0.00126646 on 192 procs for 1 steps with 1985 atoms

Performance: 68.221 ns/day, 0.352 hours/ns, 789.600 timesteps/s, 1.567 Matom-step/s
99.8% CPU use with 192 MPI tasks x 1 OpenMP threads

MPI task timing breakdown:
Section |  min time  |  avg time  |  max time  |%varavg| %total
---------------------------------------------------------------
Pair    | 5.6104e-05 | 8.2095e-05 | 0.00011927 |   0.0 |  6.48
Neigh   | 0          | 0          | 0          |   0.0 |  0.00
Comm    | 1.4338e-05 | 6.2183e-05 | 9.4268e-05 |   0.0 |  4.91
Output  | 0.0001181  | 0.00056031 | 0.0011446  |   0.0 | 44.24
Modify  | 1.43e-07   | 2.7023e-07 | 8.39e-07   |   0.0 |  0.02
Other   |            | 0.0005616  |            |       | 44.34

Nlocal:        10.3385 ave          23 max           0 min
Histogram: 52 16 8 10 9 16 18 20 28 15
Nghost:        362.604 ave         833 max          37 min
Histogram: 15 23 35 30 33 20 8 14 2 12
Neighs:            681 ave        2067 max           0 min
Histogram: 69 17 12 19 15 13 15 14 12 6

Total # of neighbors = 130752
Ave neighs/atom = 65.870025
Neighbor list builds = 0
Dangerous builds = 0
            
Total wall time: 0:00:00
                                                                                                                                                                                                                                                                                                                                                                                                                                                                                                                                                                                                                                                                                                                                                                                                                                                                                                                                                                                                                                                                                                                                                                                                                                                                                                                                                                                                                                                                                                                                                                                                                                                                                                                                                                                                                                                                                                                                                                                                                                                                                                                                                                                                                                                                                                                                                                                                                                                                                                                                                                                                                                                                                                                                                                                                                                                                                                                                                                                                                                                                                                                                                                                                                                                                                                                                                                                                                                                                                                                                                                                                                                                                                                                                                                                                                                                                                                                                                                                                                                                                                                                                                                                                                                                                                                                                                                                                                                                                                                                                                                                                                                                                                                                                                                                                                                                                                                                                                                                                                                                                                                                                                                                                                                                                                                                                                                                                                                                                                                                                                                                                                                                                                                                                                                                                                                                                                                                                                                                                                                                                                                                                                                                                                                                                                                                                                                                                                                                                                                                                                                                                                                                                                                                                                                                                                                                                                                                                                                                                                                                                                                                                                                                                                                                                                                                                                                                                                                                                                                                                                                                                                                                                                                                                                                                                                                                                                                                                                                                                                                                                                                                                                                                                                                                                                                                                                                                                                                                                                                                                                                                                                                                                                                                                                                                                                                                                                                                                                                                                                                                                                                                                                                                                                                                                                                                                                                                                                                                                                                                                                                                                                                                                                                                                                                                                                                                                                                                                                                                                                                                                                                                                                                                                                                                                                                                                                                                                                                                                                                                                                                                                                                                                                                                                                                                                                                                                                                                                                                                                                                                                                                                                                                                                                                                                                                                                                                                                                                                                                                                                                                                                                                                                                                                                                                                                                                                                                                                                                                                                                                                                                                                                                                                                                                                                                                                                                                                                                                                                                                                                                                                                                                                                                                                                                                      
Total wall time: 0:00:00
