LAMMPS (2 Aug 2023)
WARNING: Using I/O redirection is unreliable with parallel runs. Better to use the -in switch to read input files. (src/lammps.cpp:537)
OMP_NUM_THREADS environment is not set. Defaulting to 1 thread. (src/comm.cpp:98)
  using 1 OpenMP thread(s) per MPI task

    dimension 3
    units metal
    boundary s s s
    atom_style atomic
    timestep 0.001
    region myregion block 85.12434 117.4069 46.6529 77.7288 88.45630237464938 120.61490693289298  units box
    create_box 5 myregion
Created orthogonal box = (85.12434 46.6529 88.456302) to (117.4069 77.7288 120.61491)
  6 by 4 by 4 MPI processor grid
    mass 1 91.224
    mass 2 63.546
    mass 3 58.693
    mass 4 26.982
    mass 5 47.867 
    pair_style eam/alloy
    pair_coeff * * ZrTiCuNiAl_Zhou04.eam.alloy Zr Cu Ni Al Ti
Reading eam/alloy potential file ZrTiCuNiAl_Zhou04.eam.alloy with DATE: 2018-03-30
    create_atoms 4 single 91.27328 54.9594 93.90123859455599
Created 1 atoms
  using lattice units in orthogonal box = (85.121112 46.649792 88.453087) to (117.41013 77.731908 120.61812)
  create_atoms CPU = 0.000 seconds
create_atoms 2 single 89.92117999999999 54.0966 95.63128316062772
Created 1 atoms
  using lattice units in orthogonal box = (85.121112 46.649792 88.453087) to (117.41013 77.731908 120.61812)
  create_atoms CPU = 0.000 seconds
create_atoms 1 single 94.88996 55.3773 96.05368365208419
Created 1 atoms
  using lattice units in orthogonal box = (85.121112 46.649792 88.453087) to (117.41013 77.731908 120.61812)
  create_atoms CPU = 0.000 seconds
create_atoms 4 single 94.48772 53.3277 93.92328869443163
Created 1 atoms
  using lattice units in orthogonal box = (85.121112 46.649792 88.453087) to (117.41013 77.731908 120.61812)
  create_atoms CPU = 0.000 seconds
create_atoms 3 single 99.7464 53.1221 96.06685101030376
Created 1 atoms
  using lattice units in orthogonal box = (85.121112 46.649792 88.453087) to (117.41013 77.731908 120.61812)
  create_atoms CPU = 0.000 seconds
create_atoms 1 single 96.3905 55.1324 92.89205463958442
Created 1 atoms
  using lattice units in orthogonal box = (85.121112 46.649792 88.453087) to (117.41013 77.731908 120.61812)
  create_atoms CPU = 0.000 seconds
create_atoms 2 single 98.74154 54.8759 92.01120017583216
Created 1 atoms
  using lattice units in orthogonal box = (85.121112 46.649792 88.453087) to (117.41013 77.731908 120.61812)
  create_atoms CPU = 0.000 seconds
create_atoms 4 single 97.58556 54.5605 95.96119863601815
Created 1 atoms
  using lattice units in orthogonal box = (85.121112 46.649792 88.453087) to (117.41013 77.731908 120.61812)
  create_atoms CPU = 0.000 seconds
create_atoms 2 single 101.48316 53.9066 93.88368211692989
Created 1 atoms
  using lattice units in orthogonal box = (85.121112 46.649792 88.453087) to (117.41013 77.731908 120.61812)
  create_atoms CPU = 0.000 seconds
create_atoms 1 single 104.5848 54.4348 95.3332410523561
Created 1 atoms
  using lattice units in orthogonal box = (85.121112 46.649792 88.453087) to (117.41013 77.731908 120.61812)
  create_atoms CPU = 0.000 seconds
create_atoms 1 single 88.46804 59.8088 93.86821569616406
Created 1 atoms
  using lattice units in orthogonal box = (85.121112 46.649792 88.453087) to (117.41013 77.731908 120.61812)
  create_atoms CPU = 0.000 seconds
create_atoms 1 single 90.48192 57.8009 92.7748024497244
Created 1 atoms
  using lattice units in orthogonal box = (85.121112 46.649792 88.453087) to (117.41013 77.731908 120.61812)
  create_atoms CPU = 0.000 seconds
create_atoms 1 single 93.4654 56.1469 92.94587360373585
Created 1 atoms
  using lattice units in orthogonal box = (85.121112 46.649792 88.453087) to (117.41013 77.731908 120.61812)
  create_atoms CPU = 0.000 seconds
create_atoms 2 single 92.07232 58.2716 90.98623629156569
Created 1 atoms
  using lattice units in orthogonal box = (85.121112 46.649792 88.453087) to (117.41013 77.731908 120.61812)
  create_atoms CPU = 0.000 seconds
create_atoms 1 single 93.75880000000001 59.042 93.59849385834883
Created 1 atoms
  using lattice units in orthogonal box = (85.121112 46.649792 88.453087) to (117.41013 77.731908 120.61812)
  create_atoms CPU = 0.000 seconds
create_atoms 2 single 90.68022 60.2411 91.80553858078359
Created 1 atoms
  using lattice units in orthogonal box = (85.121112 46.649792 88.453087) to (117.41013 77.731908 120.61812)
  create_atoms CPU = 0.000 seconds
create_atoms 1 single 92.91832000000001 61.8183 93.28059620990484
Created 1 atoms
  using lattice units in orthogonal box = (85.121112 46.649792 88.453087) to (117.41013 77.731908 120.61812)
  create_atoms CPU = 0.000 seconds
create_atoms 1 single 89.74018 57.2439 95.36062079722538
Created 1 atoms
  using lattice units in orthogonal box = (85.121112 46.649792 88.453087) to (117.41013 77.731908 120.61812)
  create_atoms CPU = 0.000 seconds
create_atoms 2 single 92.63496 57.3125 95.12151829241282
Created 1 atoms
  using lattice units in orthogonal box = (85.121112 46.649792 88.453087) to (117.41013 77.731908 120.61812)
  create_atoms CPU = 0.000 seconds
create_atoms 1 single 91.54863999999999 60.075 94.90279384198767
Created 1 atoms
  using lattice units in orthogonal box = (85.121112 46.649792 88.453087) to (117.41013 77.731908 120.61812)
  create_atoms CPU = 0.000 seconds
create_atoms 3 single 89.81504 62.1087 95.62908860092446
Created 1 atoms
  using lattice units in orthogonal box = (85.121112 46.649792 88.453087) to (117.41013 77.731908 120.61812)
  create_atoms CPU = 0.000 seconds
create_atoms 3 single 94.95836 57.7615 91.76645451749691
Created 1 atoms
  using lattice units in orthogonal box = (85.121112 46.649792 88.453087) to (117.41013 77.731908 120.61812)
  create_atoms CPU = 0.000 seconds
create_atoms 1 single 93.8193 60.5459 91.10296596721064
Created 1 atoms
  using lattice units in orthogonal box = (85.121112 46.649792 88.453087) to (117.41013 77.731908 120.61812)
  create_atoms CPU = 0.000 seconds
create_atoms 1 single 96.31114 60.9458 95.04962033642022
Created 1 atoms
  using lattice units in orthogonal box = (85.121112 46.649792 88.453087) to (117.41013 77.731908 120.61812)
  create_atoms CPU = 0.000 seconds
create_atoms 1 single 99.14244000000001 59.4391 95.21943745631552
Created 1 atoms
  using lattice units in orthogonal box = (85.121112 46.649792 88.453087) to (117.41013 77.731908 120.61812)
  create_atoms CPU = 0.000 seconds
create_atoms 1 single 96.30662000000001 61.9668 90.87076065003689
Created 1 atoms
  using lattice units in orthogonal box = (85.121112 46.649792 88.453087) to (117.41013 77.731908 120.61812)
  create_atoms CPU = 0.000 seconds
create_atoms 2 single 98.06234 61.8631 93.72452428702188
Created 1 atoms
  using lattice units in orthogonal box = (85.121112 46.649792 88.453087) to (117.41013 77.731908 120.61812)
  create_atoms CPU = 0.000 seconds
create_atoms 2 single 96.54698 59.7532 92.89801130163613
Created 1 atoms
  using lattice units in orthogonal box = (85.121112 46.649792 88.453087) to (117.41013 77.731908 120.61812)
  create_atoms CPU = 0.000 seconds
create_atoms 1 single 98.0467 57.5476 92.46463801166335
Created 1 atoms
  using lattice units in orthogonal box = (85.121112 46.649792 88.453087) to (117.41013 77.731908 120.61812)
  create_atoms CPU = 0.000 seconds
create_atoms 3 single 96.18008 59.2573 90.45891494572469
Created 1 atoms
  using lattice units in orthogonal box = (85.121112 46.649792 88.453087) to (117.41013 77.731908 120.61812)
  create_atoms CPU = 0.000 seconds
create_atoms 1 single 96.55212 57.4486 94.59158437549648
Created 1 atoms
  using lattice units in orthogonal box = (85.121112 46.649792 88.453087) to (117.41013 77.731908 120.61812)
  create_atoms CPU = 0.000 seconds
create_atoms 1 single 98.9942 60.3763 92.01005064455903
Created 1 atoms
  using lattice units in orthogonal box = (85.121112 46.649792 88.453087) to (117.41013 77.731908 120.61812)
  create_atoms CPU = 0.000 seconds
create_atoms 1 single 99.74194 55.5894 94.77477785929739
Created 1 atoms
  using lattice units in orthogonal box = (85.121112 46.649792 88.453087) to (117.41013 77.731908 120.61812)
  create_atoms CPU = 0.000 seconds
create_atoms 1 single 101.21422000000001 56.3581 92.5605716215488
Created 1 atoms
  using lattice units in orthogonal box = (85.121112 46.649792 88.453087) to (117.41013 77.731908 120.61812)
  create_atoms CPU = 0.000 seconds
create_atoms 2 single 104.04092000000001 57.1284 94.01159359677719
Created 1 atoms
  using lattice units in orthogonal box = (85.121112 46.649792 88.453087) to (117.41013 77.731908 120.61812)
  create_atoms CPU = 0.000 seconds
create_atoms 3 single 102.53892 56.206 95.25726748548603
Created 1 atoms
  using lattice units in orthogonal box = (85.121112 46.649792 88.453087) to (117.41013 77.731908 120.61812)
  create_atoms CPU = 0.000 seconds
create_atoms 1 single 101.37412 61.2113 94.64958345336841
Created 1 atoms
  using lattice units in orthogonal box = (85.121112 46.649792 88.453087) to (117.41013 77.731908 120.61812)
  create_atoms CPU = 0.000 seconds
create_atoms 2 single 100.81006000000001 58.16 94.26093738020498
Created 1 atoms
  using lattice units in orthogonal box = (85.121112 46.649792 88.453087) to (117.41013 77.731908 120.61812)
  create_atoms CPU = 0.000 seconds
create_atoms 2 single 101.29174 62.1465 91.81734740204399
Created 1 atoms
  using lattice units in orthogonal box = (85.121112 46.649792 88.453087) to (117.41013 77.731908 120.61812)
  create_atoms CPU = 0.000 seconds
create_atoms 1 single 102.16414 59.3437 92.64239734762758
Created 1 atoms
  using lattice units in orthogonal box = (85.121112 46.649792 88.453087) to (117.41013 77.731908 120.61812)
  create_atoms CPU = 0.000 seconds
create_atoms 3 single 99.57748 58.19 90.85080060702151
Created 1 atoms
  using lattice units in orthogonal box = (85.121112 46.649792 88.453087) to (117.41013 77.731908 120.61812)
  create_atoms CPU = 0.000 seconds
create_atoms 3 single 103.81658 61.6414 93.70320570704735
Created 1 atoms
  using lattice units in orthogonal box = (85.121112 46.649792 88.453087) to (117.41013 77.731908 120.61812)
  create_atoms CPU = 0.000 seconds
create_atoms 1 single 103.50164 58.9621 95.77957269486244
Created 1 atoms
  using lattice units in orthogonal box = (85.121112 46.649792 88.453087) to (117.41013 77.731908 120.61812)
  create_atoms CPU = 0.000 seconds
create_atoms 1 single 105.65230000000001 59.6107 94.44130928724454
Created 1 atoms
  using lattice units in orthogonal box = (85.121112 46.649792 88.453087) to (117.41013 77.731908 120.61812)
  create_atoms CPU = 0.000 seconds
create_atoms 2 single 106.62622 57.0658 95.65019817521298
Created 1 atoms
  using lattice units in orthogonal box = (85.121112 46.649792 88.453087) to (117.41013 77.731908 120.61812)
  create_atoms CPU = 0.000 seconds
create_atoms 2 single 91.42592 54.9372 100.51271546058398
Created 1 atoms
  using lattice units in orthogonal box = (85.121112 46.649792 88.453087) to (117.41013 77.731908 120.61812)
  create_atoms CPU = 0.000 seconds
create_atoms 1 single 89.48364 55.3186 97.88844006685441
Created 1 atoms
  using lattice units in orthogonal box = (85.121112 46.649792 88.453087) to (117.41013 77.731908 120.61812)
  create_atoms CPU = 0.000 seconds
create_atoms 4 single 91.15352 52.5697 101.27924381408059
Created 1 atoms
  using lattice units in orthogonal box = (85.121112 46.649792 88.453087) to (117.41013 77.731908 120.61812)
  create_atoms CPU = 0.000 seconds
create_atoms 5 single 94.54694 51.4657 98.84829867992411
Created 1 atoms
  using lattice units in orthogonal box = (85.121112 46.649792 88.453087) to (117.41013 77.731908 120.61812)
  create_atoms CPU = 0.000 seconds
create_atoms 1 single 91.69406000000001 53.1412 98.4055201340802
Created 1 atoms
  using lattice units in orthogonal box = (85.121112 46.649792 88.453087) to (117.41013 77.731908 120.61812)
  create_atoms CPU = 0.000 seconds
create_atoms 4 single 94.92656 54.2111 98.73418157535447
Created 1 atoms
  using lattice units in orthogonal box = (85.121112 46.649792 88.453087) to (117.41013 77.731908 120.61812)
  create_atoms CPU = 0.000 seconds
create_atoms 1 single 94.17776 53.3321 101.05048709072624
Created 1 atoms
  using lattice units in orthogonal box = (85.121112 46.649792 88.453087) to (117.41013 77.731908 120.61812)
  create_atoms CPU = 0.000 seconds
create_atoms 1 single 92.94954 52.93 96.09987390869571
Created 1 atoms
  using lattice units in orthogonal box = (85.121112 46.649792 88.453087) to (117.41013 77.731908 120.61812)
  create_atoms CPU = 0.000 seconds
create_atoms 4 single 92.84654 50.6425 100.31290602474411
Created 1 atoms
  using lattice units in orthogonal box = (85.121112 46.649792 88.453087) to (117.41013 77.731908 120.61812)
  create_atoms CPU = 0.000 seconds
create_atoms 1 single 96.03804 52.2501 96.79377278629862
Created 1 atoms
  using lattice units in orthogonal box = (85.121112 46.649792 88.453087) to (117.41013 77.731908 120.61812)
  create_atoms CPU = 0.000 seconds
create_atoms 2 single 97.23734 50.7536 99.26735508040419
Created 1 atoms
  using lattice units in orthogonal box = (85.121112 46.649792 88.453087) to (117.41013 77.731908 120.61812)
  create_atoms CPU = 0.000 seconds
create_atoms 1 single 99.47614 51.0943 101.65106492951901
Created 1 atoms
  using lattice units in orthogonal box = (85.121112 46.649792 88.453087) to (117.41013 77.731908 120.61812)
  create_atoms CPU = 0.000 seconds
create_atoms 4 single 97.57086 54.0723 98.79897333802222
Created 1 atoms
  using lattice units in orthogonal box = (85.121112 46.649792 88.453087) to (117.41013 77.731908 120.61812)
  create_atoms CPU = 0.000 seconds
create_atoms 1 single 99.42426 52.116 98.55809428487844
Created 1 atoms
  using lattice units in orthogonal box = (85.121112 46.649792 88.453087) to (117.41013 77.731908 120.61812)
  create_atoms CPU = 0.000 seconds
create_atoms 2 single 101.67508 52.2144 101.0074319194051
Created 1 atoms
  using lattice units in orthogonal box = (85.121112 46.649792 88.453087) to (117.41013 77.731908 120.61812)
  create_atoms CPU = 0.000 seconds
create_atoms 1 single 100.55852 54.9325 98.33330866955858
Created 1 atoms
  using lattice units in orthogonal box = (85.121112 46.649792 88.453087) to (117.41013 77.731908 120.61812)
  create_atoms CPU = 0.000 seconds
create_atoms 2 single 100.64416 49.763 100.00807123167668
Created 1 atoms
  using lattice units in orthogonal box = (85.121112 46.649792 88.453087) to (117.41013 77.731908 120.61812)
  create_atoms CPU = 0.000 seconds
create_atoms 1 single 100.06198 54.117 101.32512056216305
Created 1 atoms
  using lattice units in orthogonal box = (85.121112 46.649792 88.453087) to (117.41013 77.731908 120.61812)
  create_atoms CPU = 0.000 seconds
create_atoms 4 single 97.152 53.0027 101.1279236973985
Created 1 atoms
  using lattice units in orthogonal box = (85.121112 46.649792 88.453087) to (117.41013 77.731908 120.61812)
  create_atoms CPU = 0.000 seconds
create_atoms 2 single 105.50497999999999 54.07 98.5385522532351
Created 1 atoms
  using lattice units in orthogonal box = (85.121112 46.649792 88.453087) to (117.41013 77.731908 120.61812)
  create_atoms CPU = 0.000 seconds
create_atoms 1 single 104.3927 51.6623 98.16631312642461
Created 1 atoms
  using lattice units in orthogonal box = (85.121112 46.649792 88.453087) to (117.41013 77.731908 120.61812)
  create_atoms CPU = 0.000 seconds
create_atoms 1 single 102.4926 53.9863 96.75552474575605
Created 1 atoms
  using lattice units in orthogonal box = (85.121112 46.649792 88.453087) to (117.41013 77.731908 120.61812)
  create_atoms CPU = 0.000 seconds
create_atoms 2 single 102.73528 53.1338 99.42212379090567
Created 1 atoms
  using lattice units in orthogonal box = (85.121112 46.649792 88.453087) to (117.41013 77.731908 120.61812)
  create_atoms CPU = 0.000 seconds
create_atoms 4 single 101.41312 51.0802 97.44555701816749
Created 1 atoms
  using lattice units in orthogonal box = (85.121112 46.649792 88.453087) to (117.41013 77.731908 120.61812)
  create_atoms CPU = 0.000 seconds
create_atoms 3 single 106.23206 50.3269 100.64397103140767
Created 1 atoms
  using lattice units in orthogonal box = (85.121112 46.649792 88.453087) to (117.41013 77.731908 120.61812)
  create_atoms CPU = 0.000 seconds
create_atoms 1 single 103.48894 50.5392 100.42367903833734
Created 1 atoms
  using lattice units in orthogonal box = (85.121112 46.649792 88.453087) to (117.41013 77.731908 120.61812)
  create_atoms CPU = 0.000 seconds
create_atoms 1 single 105.58786 52.9549 101.09542331322162
Created 1 atoms
  using lattice units in orthogonal box = (85.121112 46.649792 88.453087) to (117.41013 77.731908 120.61812)
  create_atoms CPU = 0.000 seconds
create_atoms 1 single 103.14832 55.1808 101.44801590554574
Created 1 atoms
  using lattice units in orthogonal box = (85.121112 46.649792 88.453087) to (117.41013 77.731908 120.61812)
  create_atoms CPU = 0.000 seconds
create_atoms 1 single 107.65580000000001 55.0076 97.5100352723062
Created 1 atoms
  using lattice units in orthogonal box = (85.121112 46.649792 88.453087) to (117.41013 77.731908 120.61812)
  create_atoms CPU = 0.000 seconds
create_atoms 3 single 107.24588 51.8176 99.34008905914088
Created 1 atoms
  using lattice units in orthogonal box = (85.121112 46.649792 88.453087) to (117.41013 77.731908 120.61812)
  create_atoms CPU = 0.000 seconds
create_atoms 1 single 108.24752000000001 54.1125 100.36902405144183
Created 1 atoms
  using lattice units in orthogonal box = (85.121112 46.649792 88.453087) to (117.41013 77.731908 120.61812)
  create_atoms CPU = 0.000 seconds
create_atoms 1 single 87.51664000000001 58.7691 100.07150445738527
Created 1 atoms
  using lattice units in orthogonal box = (85.121112 46.649792 88.453087) to (117.41013 77.731908 120.61812)
  create_atoms CPU = 0.000 seconds
create_atoms 2 single 88.13384 55.8722 99.81808506307999
Created 1 atoms
  using lattice units in orthogonal box = (85.121112 46.649792 88.453087) to (117.41013 77.731908 120.61812)
  create_atoms CPU = 0.000 seconds
create_atoms 1 single 88.05286 58.0308 97.33384347898715
Created 1 atoms
  using lattice units in orthogonal box = (85.121112 46.649792 88.453087) to (117.41013 77.731908 120.61812)
  create_atoms CPU = 0.000 seconds
create_atoms 1 single 90.35564 57.5532 100.62589203956651
Created 1 atoms
  using lattice units in orthogonal box = (85.121112 46.649792 88.453087) to (117.41013 77.731908 120.61812)
  create_atoms CPU = 0.000 seconds
create_atoms 1 single 87.47210000000001 61.7352 100.89226978640534
Created 1 atoms
  using lattice units in orthogonal box = (85.121112 46.649792 88.453087) to (117.41013 77.731908 120.61812)
  create_atoms CPU = 0.000 seconds
create_atoms 1 single 89.41266 60.4009 99.056572846048
Created 1 atoms
  using lattice units in orthogonal box = (85.121112 46.649792 88.453087) to (117.41013 77.731908 120.61812)
  create_atoms CPU = 0.000 seconds
create_atoms 1 single 87.59988 61.0543 96.10520355368935
Created 1 atoms
  using lattice units in orthogonal box = (85.121112 46.649792 88.453087) to (117.41013 77.731908 120.61812)
  create_atoms CPU = 0.000 seconds
create_atoms 1 single 92.27808 55.6331 97.00706308888711
Created 1 atoms
  using lattice units in orthogonal box = (85.121112 46.649792 88.453087) to (117.41013 77.731908 120.61812)
  create_atoms CPU = 0.000 seconds
create_atoms 2 single 90.15856000000001 59.6319 96.81550937764523
Created 1 atoms
  using lattice units in orthogonal box = (85.121112 46.649792 88.453087) to (117.41013 77.731908 120.61812)
  create_atoms CPU = 0.000 seconds
create_atoms 2 single 90.96480000000001 57.5286 98.27342854051243
Created 1 atoms
  using lattice units in orthogonal box = (85.121112 46.649792 88.453087) to (117.41013 77.731908 120.61812)
  create_atoms CPU = 0.000 seconds
create_atoms 1 single 93.424 56.1774 99.97786991004608
Created 1 atoms
  using lattice units in orthogonal box = (85.121112 46.649792 88.453087) to (117.41013 77.731908 120.61812)
  create_atoms CPU = 0.000 seconds
create_atoms 1 single 92.48483999999999 59.3238 100.16607953031156
Created 1 atoms
  using lattice units in orthogonal box = (85.121112 46.649792 88.453087) to (117.41013 77.731908 120.61812)
  create_atoms CPU = 0.000 seconds
create_atoms 1 single 93.03742 58.6175 97.60178876847117
Created 1 atoms
  using lattice units in orthogonal box = (85.121112 46.649792 88.453087) to (117.41013 77.731908 120.61812)
  create_atoms CPU = 0.000 seconds
create_atoms 2 single 95.1902 56.8475 98.5979098680662
Created 1 atoms
  using lattice units in orthogonal box = (85.121112 46.649792 88.453087) to (117.41013 77.731908 120.61812)
  create_atoms CPU = 0.000 seconds
create_atoms 3 single 94.55848 60.451 99.51774389226209
Created 1 atoms
  using lattice units in orthogonal box = (85.121112 46.649792 88.453087) to (117.41013 77.731908 120.61812)
  create_atoms CPU = 0.000 seconds
create_atoms 1 single 92.13058000000001 61.5346 97.85353611728826
Created 1 atoms
  using lattice units in orthogonal box = (85.121112 46.649792 88.453087) to (117.41013 77.731908 120.61812)
  create_atoms CPU = 0.000 seconds
create_atoms 1 single 94.51 61.0794 96.69073298308831
Created 1 atoms
  using lattice units in orthogonal box = (85.121112 46.649792 88.453087) to (117.41013 77.731908 120.61812)
  create_atoms CPU = 0.000 seconds
create_atoms 4 single 95.14078 58.2439 96.39206385775861
Created 1 atoms
  using lattice units in orthogonal box = (85.121112 46.649792 88.453087) to (117.41013 77.731908 120.61812)
  create_atoms CPU = 0.000 seconds
create_atoms 3 single 91.95782 61.8279 100.35909628135563
Created 1 atoms
  using lattice units in orthogonal box = (85.121112 46.649792 88.453087) to (117.41013 77.731908 120.61812)
  create_atoms CPU = 0.000 seconds
create_atoms 1 single 95.52376 58.2774 101.24381735029934
Created 1 atoms
  using lattice units in orthogonal box = (85.121112 46.649792 88.453087) to (117.41013 77.731908 120.61812)
  create_atoms CPU = 0.000 seconds
create_atoms 5 single 99.01892 58.2478 101.12562463485222
Created 1 atoms
  using lattice units in orthogonal box = (85.121112 46.649792 88.453087) to (117.41013 77.731908 120.61812)
  create_atoms CPU = 0.000 seconds
create_atoms 1 single 96.69598 59.3412 99.04643607027579
Created 1 atoms
  using lattice units in orthogonal box = (85.121112 46.649792 88.453087) to (117.41013 77.731908 120.61812)
  create_atoms CPU = 0.000 seconds
create_atoms 2 single 100.47058 56.4912 100.38616251769587
Created 1 atoms
  using lattice units in orthogonal box = (85.121112 46.649792 88.453087) to (117.41013 77.731908 120.61812)
  create_atoms CPU = 0.000 seconds
create_atoms 2 single 101.02532000000001 61.7451 99.23255563368103
Created 1 atoms
  using lattice units in orthogonal box = (85.121112 46.649792 88.453087) to (117.41013 77.731908 120.61812)
  create_atoms CPU = 0.000 seconds
create_atoms 1 single 99.44204 62.139 96.51266013859504
Created 1 atoms
  using lattice units in orthogonal box = (85.121112 46.649792 88.453087) to (117.41013 77.731908 120.61812)
  create_atoms CPU = 0.000 seconds
create_atoms 3 single 98.35758 61.0714 98.30498839910219
Created 1 atoms
  using lattice units in orthogonal box = (85.121112 46.649792 88.453087) to (117.41013 77.731908 120.61812)
  create_atoms CPU = 0.000 seconds
create_atoms 2 single 97.64688 59.1217 96.87695704933655
Created 1 atoms
  using lattice units in orthogonal box = (85.121112 46.649792 88.453087) to (117.41013 77.731908 120.61812)
  create_atoms CPU = 0.000 seconds
create_atoms 1 single 100.21456 58.921 98.92907937757276
Created 1 atoms
  using lattice units in orthogonal box = (85.121112 46.649792 88.453087) to (117.41013 77.731908 120.61812)
  create_atoms CPU = 0.000 seconds
create_atoms 2 single 99.1438 57.1042 96.59250031065656
Created 1 atoms
  using lattice units in orthogonal box = (85.121112 46.649792 88.453087) to (117.41013 77.731908 120.61812)
  create_atoms CPU = 0.000 seconds
create_atoms 1 single 97.80248 56.7296 98.28722291579007
Created 1 atoms
  using lattice units in orthogonal box = (85.121112 46.649792 88.453087) to (117.41013 77.731908 120.61812)
  create_atoms CPU = 0.000 seconds
create_atoms 1 single 97.3266 55.9089 100.95810657750322
Created 1 atoms
  using lattice units in orthogonal box = (85.121112 46.649792 88.453087) to (117.41013 77.731908 120.61812)
  create_atoms CPU = 0.000 seconds
create_atoms 1 single 99.7445 60.998 101.0333486244722
Created 1 atoms
  using lattice units in orthogonal box = (85.121112 46.649792 88.453087) to (117.41013 77.731908 120.61812)
  create_atoms CPU = 0.000 seconds
create_atoms 1 single 106.28368 60.6524 101.6819977710507
Created 1 atoms
  using lattice units in orthogonal box = (85.121112 46.649792 88.453087) to (117.41013 77.731908 120.61812)
  create_atoms CPU = 0.000 seconds
create_atoms 2 single 103.58926000000001 55.4667 99.04978016125217
Created 1 atoms
  using lattice units in orthogonal box = (85.121112 46.649792 88.453087) to (117.41013 77.731908 120.61812)
  create_atoms CPU = 0.000 seconds
create_atoms 1 single 106.16354000000001 55.8638 100.9806791915939
Created 1 atoms
  using lattice units in orthogonal box = (85.121112 46.649792 88.453087) to (117.41013 77.731908 120.61812)
  create_atoms CPU = 0.000 seconds
create_atoms 2 single 105.12950000000001 60.6428 98.77608721540248
Created 1 atoms
  using lattice units in orthogonal box = (85.121112 46.649792 88.453087) to (117.41013 77.731908 120.61812)
  create_atoms CPU = 0.000 seconds
create_atoms 1 single 102.17774000000001 60.2911 97.66375895437758
Created 1 atoms
  using lattice units in orthogonal box = (85.121112 46.649792 88.453087) to (117.41013 77.731908 120.61812)
  create_atoms CPU = 0.000 seconds
create_atoms 1 single 104.79307999999999 61.9019 96.49186407283554
Created 1 atoms
  using lattice units in orthogonal box = (85.121112 46.649792 88.453087) to (117.41013 77.731908 120.61812)
  create_atoms CPU = 0.000 seconds
create_atoms 1 single 104.86576000000001 58.3019 99.5237005543138
Created 1 atoms
  using lattice units in orthogonal box = (85.121112 46.649792 88.453087) to (117.41013 77.731908 120.61812)
  create_atoms CPU = 0.000 seconds
create_atoms 1 single 105.03562000000001 56.4771 97.41420616526376
Created 1 atoms
  using lattice units in orthogonal box = (85.121112 46.649792 88.453087) to (117.41013 77.731908 120.61812)
  create_atoms CPU = 0.000 seconds
create_atoms 3 single 102.59450000000001 57.4431 100.01967104725107
Created 1 atoms
  using lattice units in orthogonal box = (85.121112 46.649792 88.453087) to (117.41013 77.731908 120.61812)
  create_atoms CPU = 0.000 seconds
create_atoms 1 single 101.8954 57.3101 97.24773313634486
Created 1 atoms
  using lattice units in orthogonal box = (85.121112 46.649792 88.453087) to (117.41013 77.731908 120.61812)
  create_atoms CPU = 0.000 seconds
create_atoms 1 single 103.11078 60.0367 100.98078369443691
Created 1 atoms
  using lattice units in orthogonal box = (85.121112 46.649792 88.453087) to (117.41013 77.731908 120.61812)
  create_atoms CPU = 0.000 seconds
create_atoms 1 single 110.62148 55.4609 99.96762863143086
Created 1 atoms
  using lattice units in orthogonal box = (85.121112 46.649792 88.453087) to (117.41013 77.731908 120.61812)
  create_atoms CPU = 0.000 seconds
create_atoms 1 single 106.53618000000002 59.0372 97.47941593930355
Created 1 atoms
  using lattice units in orthogonal box = (85.121112 46.649792 88.453087) to (117.41013 77.731908 120.61812)
  create_atoms CPU = 0.000 seconds
create_atoms 3 single 108.51566 60.0052 96.24335631215186
Created 1 atoms
  using lattice units in orthogonal box = (85.121112 46.649792 88.453087) to (117.41013 77.731908 120.61812)
  create_atoms CPU = 0.000 seconds
create_atoms 1 single 109.27322000000001 57.769 97.88394644460489
Created 1 atoms
  using lattice units in orthogonal box = (85.121112 46.649792 88.453087) to (117.41013 77.731908 120.61812)
  create_atoms CPU = 0.000 seconds
create_atoms 3 single 107.76308 57.0414 99.55222983045621
Created 1 atoms
  using lattice units in orthogonal box = (85.121112 46.649792 88.453087) to (117.41013 77.731908 120.61812)
  create_atoms CPU = 0.000 seconds
create_atoms 3 single 110.38188 60.3645 99.00515744728585
Created 1 atoms
  using lattice units in orthogonal box = (85.121112 46.649792 88.453087) to (117.41013 77.731908 120.61812)
  create_atoms CPU = 0.000 seconds
create_atoms 3 single 107.77896 61.3177 97.81351152841447
Created 1 atoms
  using lattice units in orthogonal box = (85.121112 46.649792 88.453087) to (117.41013 77.731908 120.61812)
  create_atoms CPU = 0.000 seconds
create_atoms 1 single 108.4235 59.8719 100.21874896318985
Created 1 atoms
  using lattice units in orthogonal box = (85.121112 46.649792 88.453087) to (117.41013 77.731908 120.61812)
  create_atoms CPU = 0.000 seconds
create_atoms 1 single 111.20768 58.2727 100.81253411718681
Created 1 atoms
  using lattice units in orthogonal box = (85.121112 46.649792 88.453087) to (117.41013 77.731908 120.61812)
  create_atoms CPU = 0.000 seconds
create_atoms 3 single 92.06349999999999 52.9698 104.18410934129867
Created 1 atoms
  using lattice units in orthogonal box = (85.121112 46.649792 88.453087) to (117.41013 77.731908 120.61812)
  create_atoms CPU = 0.000 seconds
create_atoms 1 single 90.4794 55.1617 102.61499915346619
Created 1 atoms
  using lattice units in orthogonal box = (85.121112 46.649792 88.453087) to (117.41013 77.731908 120.61812)
  create_atoms CPU = 0.000 seconds
create_atoms 2 single 98.4766 53.2423 106.18115867126728
Created 1 atoms
  using lattice units in orthogonal box = (85.121112 46.649792 88.453087) to (117.41013 77.731908 120.61812)
  create_atoms CPU = 0.000 seconds
create_atoms 4 single 96.41176 53.3381 103.6745534787698
Created 1 atoms
  using lattice units in orthogonal box = (85.121112 46.649792 88.453087) to (117.41013 77.731908 120.61812)
  create_atoms CPU = 0.000 seconds
create_atoms 1 single 96.8435 50.9423 105.59176263667688
Created 1 atoms
  using lattice units in orthogonal box = (85.121112 46.649792 88.453087) to (117.41013 77.731908 120.61812)
  create_atoms CPU = 0.000 seconds
create_atoms 1 single 96.24156 50.6423 102.0761824948938
Created 1 atoms
  using lattice units in orthogonal box = (85.121112 46.649792 88.453087) to (117.41013 77.731908 120.61812)
  create_atoms CPU = 0.000 seconds
create_atoms 1 single 94.983 53.3843 105.56772698278401
Created 1 atoms
  using lattice units in orthogonal box = (85.121112 46.649792 88.453087) to (117.41013 77.731908 120.61812)
  create_atoms CPU = 0.000 seconds
create_atoms 3 single 93.37914 54.3026 103.00646680339096
Created 1 atoms
  using lattice units in orthogonal box = (85.121112 46.649792 88.453087) to (117.41013 77.731908 120.61812)
  create_atoms CPU = 0.000 seconds
create_atoms 1 single 93.92551999999999 51.4314 103.26166274602744
Created 1 atoms
  using lattice units in orthogonal box = (85.121112 46.649792 88.453087) to (117.41013 77.731908 120.61812)
  create_atoms CPU = 0.000 seconds
create_atoms 3 single 98.2394 49.3378 104.44745650569014
Created 1 atoms
  using lattice units in orthogonal box = (85.121112 46.649792 88.453087) to (117.41013 77.731908 120.61812)
  create_atoms CPU = 0.000 seconds
create_atoms 1 single 101.4836 53.7006 106.23445512120365
Created 1 atoms
  using lattice units in orthogonal box = (85.121112 46.649792 88.453087) to (117.41013 77.731908 120.61812)
  create_atoms CPU = 0.000 seconds
create_atoms 4 single 103.3109 51.6068 105.85510980106834
Created 1 atoms
  using lattice units in orthogonal box = (85.121112 46.649792 88.453087) to (117.41013 77.731908 120.61812)
  create_atoms CPU = 0.000 seconds
create_atoms 1 single 102.5336 54.9006 104.09371438209288
Created 1 atoms
  using lattice units in orthogonal box = (85.121112 46.649792 88.453087) to (117.41013 77.731908 120.61812)
  create_atoms CPU = 0.000 seconds
create_atoms 2 single 101.38470000000001 52.4509 103.67256792475256
Created 1 atoms
  using lattice units in orthogonal box = (85.121112 46.649792 88.453087) to (117.41013 77.731908 120.61812)
  create_atoms CPU = 0.000 seconds
create_atoms 1 single 101.0341 49.6316 104.68258790246823
Created 1 atoms
  using lattice units in orthogonal box = (85.121112 46.649792 88.453087) to (117.41013 77.731908 120.61812)
  create_atoms CPU = 0.000 seconds
create_atoms 1 single 98.98594 54.6363 103.82681412103898
Created 1 atoms
  using lattice units in orthogonal box = (85.121112 46.649792 88.453087) to (117.41013 77.731908 120.61812)
  create_atoms CPU = 0.000 seconds
create_atoms 5 single 98.957 51.8139 104.14074066144849
Created 1 atoms
  using lattice units in orthogonal box = (85.121112 46.649792 88.453087) to (117.41013 77.731908 120.61812)
  create_atoms CPU = 0.000 seconds
create_atoms 4 single 98.51964 48.6529 102.05862601726771
Created 1 atoms
  using lattice units in orthogonal box = (85.121112 46.649792 88.453087) to (117.41013 77.731908 120.61812)
  create_atoms CPU = 0.000 seconds
create_atoms 1 single 102.68284 50.0453 102.89255870450735
Created 1 atoms
  using lattice units in orthogonal box = (85.121112 46.649792 88.453087) to (117.41013 77.731908 120.61812)
  create_atoms CPU = 0.000 seconds
create_atoms 1 single 100.1846 50.8199 106.98583056246345
Created 1 atoms
  using lattice units in orthogonal box = (85.121112 46.649792 88.453087) to (117.41013 77.731908 120.61812)
  create_atoms CPU = 0.000 seconds
create_atoms 4 single 104.7534 49.049 105.50607030540662
Created 1 atoms
  using lattice units in orthogonal box = (85.121112 46.649792 88.453087) to (117.41013 77.731908 120.61812)
  create_atoms CPU = 0.000 seconds
create_atoms 3 single 108.31250000000001 55.2467 106.50093737088551
Created 1 atoms
  using lattice units in orthogonal box = (85.121112 46.649792 88.453087) to (117.41013 77.731908 120.61812)
  create_atoms CPU = 0.000 seconds
create_atoms 3 single 107.93190000000001 50.4248 106.19996918300954
Created 1 atoms
  using lattice units in orthogonal box = (85.121112 46.649792 88.453087) to (117.41013 77.731908 120.61812)
  create_atoms CPU = 0.000 seconds
create_atoms 3 single 108.20396000000001 54.3757 102.88921461353095
Created 1 atoms
  using lattice units in orthogonal box = (85.121112 46.649792 88.453087) to (117.41013 77.731908 120.61812)
  create_atoms CPU = 0.000 seconds
create_atoms 1 single 107.9016 52.8951 104.88114330419195
Created 1 atoms
  using lattice units in orthogonal box = (85.121112 46.649792 88.453087) to (117.41013 77.731908 120.61812)
  create_atoms CPU = 0.000 seconds
create_atoms 3 single 105.89042 54.6979 103.29458114157639
Created 1 atoms
  using lattice units in orthogonal box = (85.121112 46.649792 88.453087) to (117.41013 77.731908 120.61812)
  create_atoms CPU = 0.000 seconds
create_atoms 1 single 106.10752000000001 50.4759 103.29405862736132
Created 1 atoms
  using lattice units in orthogonal box = (85.121112 46.649792 88.453087) to (117.41013 77.731908 120.61812)
  create_atoms CPU = 0.000 seconds
create_atoms 5 single 105.6371 54.1317 105.75583210020648
Created 1 atoms
  using lattice units in orthogonal box = (85.121112 46.649792 88.453087) to (117.41013 77.731908 120.61812)
  create_atoms CPU = 0.000 seconds
create_atoms 1 single 104.06372 52.6886 103.13939441970284
Created 1 atoms
  using lattice units in orthogonal box = (85.121112 46.649792 88.453087) to (117.41013 77.731908 120.61812)
  create_atoms CPU = 0.000 seconds
create_atoms 2 single 105.65190000000001 51.5711 105.57922229551536
Created 1 atoms
  using lattice units in orthogonal box = (85.121112 46.649792 88.453087) to (117.41013 77.731908 120.61812)
  create_atoms CPU = 0.000 seconds
create_atoms 1 single 110.4756 54.9209 105.25003834002604
Created 1 atoms
  using lattice units in orthogonal box = (85.121112 46.649792 88.453087) to (117.41013 77.731908 120.61812)
  create_atoms CPU = 0.000 seconds
create_atoms 1 single 111.01214 53.8278 102.81888420018355
Created 1 atoms
  using lattice units in orthogonal box = (85.121112 46.649792 88.453087) to (117.41013 77.731908 120.61812)
  create_atoms CPU = 0.000 seconds
create_atoms 1 single 108.54711999999999 51.7618 102.42302743085224
Created 1 atoms
  using lattice units in orthogonal box = (85.121112 46.649792 88.453087) to (117.41013 77.731908 120.61812)
  create_atoms CPU = 0.000 seconds
create_atoms 1 single 90.49624 60.6028 102.09467949810701
Created 1 atoms
  using lattice units in orthogonal box = (85.121112 46.649792 88.453087) to (117.41013 77.731908 120.61812)
  create_atoms CPU = 0.000 seconds
create_atoms 3 single 90.2132 56.2172 105.16330098032567
Created 1 atoms
  using lattice units in orthogonal box = (85.121112 46.649792 88.453087) to (117.41013 77.731908 120.61812)
  create_atoms CPU = 0.000 seconds
create_atoms 4 single 87.61344 61.5243 104.06664814575264
Created 1 atoms
  using lattice units in orthogonal box = (85.121112 46.649792 88.453087) to (117.41013 77.731908 120.61812)
  create_atoms CPU = 0.000 seconds
create_atoms 2 single 92.1442 61.4728 107.17811579360642
Created 1 atoms
  using lattice units in orthogonal box = (85.121112 46.649792 88.453087) to (117.41013 77.731908 120.61812)
  create_atoms CPU = 0.000 seconds
create_atoms 1 single 89.456 61.2223 107.08510826332531
Created 1 atoms
  using lattice units in orthogonal box = (85.121112 46.649792 88.453087) to (117.41013 77.731908 120.61812)
  create_atoms CPU = 0.000 seconds
create_atoms 1 single 92.33 58.2298 106.72770854022261
Created 1 atoms
  using lattice units in orthogonal box = (85.121112 46.649792 88.453087) to (117.41013 77.731908 120.61812)
  create_atoms CPU = 0.000 seconds
create_atoms 1 single 93.2262 60.4488 105.2949745625214
Created 1 atoms
  using lattice units in orthogonal box = (85.121112 46.649792 88.453087) to (117.41013 77.731908 120.61812)
  create_atoms CPU = 0.000 seconds
create_atoms 2 single 90.4282 60.8158 104.81635154152421
Created 1 atoms
  using lattice units in orthogonal box = (85.121112 46.649792 88.453087) to (117.41013 77.731908 120.61812)
  create_atoms CPU = 0.000 seconds
create_atoms 1 single 91.0491 58.1112 103.6913784364948
Created 1 atoms
  using lattice units in orthogonal box = (85.121112 46.649792 88.453087) to (117.41013 77.731908 120.61812)
  create_atoms CPU = 0.000 seconds
create_atoms 1 single 92.8771 55.5013 105.34513592716739
Created 1 atoms
  using lattice units in orthogonal box = (85.121112 46.649792 88.453087) to (117.41013 77.731908 120.61812)
  create_atoms CPU = 0.000 seconds
create_atoms 2 single 88.35864000000001 59.566 102.8042538021618
Created 1 atoms
  using lattice units in orthogonal box = (85.121112 46.649792 88.453087) to (117.41013 77.731908 120.61812)
  create_atoms CPU = 0.000 seconds
create_atoms 1 single 89.1828 58.6491 105.50920539069699
Created 1 atoms
  using lattice units in orthogonal box = (85.121112 46.649792 88.453087) to (117.41013 77.731908 120.61812)
  create_atoms CPU = 0.000 seconds
create_atoms 2 single 88.34602000000001 57.0279 102.45960342590661
Created 1 atoms
  using lattice units in orthogonal box = (85.121112 46.649792 88.453087) to (117.41013 77.731908 120.61812)
  create_atoms CPU = 0.000 seconds
create_atoms 1 single 96.2416 59.4169 107.10914391721818
Created 1 atoms
  using lattice units in orthogonal box = (85.121112 46.649792 88.453087) to (117.41013 77.731908 120.61812)
  create_atoms CPU = 0.000 seconds
create_atoms 1 single 95.20128000000001 61.1599 102.17943130379014
Created 1 atoms
  using lattice units in orthogonal box = (85.121112 46.649792 88.453087) to (117.41013 77.731908 120.61812)
  create_atoms CPU = 0.000 seconds
create_atoms 1 single 98.1203 60.5901 104.80067611507233
Created 1 atoms
  using lattice units in orthogonal box = (85.121112 46.649792 88.453087) to (117.41013 77.731908 120.61812)
  create_atoms CPU = 0.000 seconds
create_atoms 2 single 95.6399 61.5006 105.04312271086131
Created 1 atoms
  using lattice units in orthogonal box = (85.121112 46.649792 88.453087) to (117.41013 77.731908 120.61812)
  create_atoms CPU = 0.000 seconds
create_atoms 3 single 98.2846 58.2368 106.26580597410741
Created 1 atoms
  using lattice units in orthogonal box = (85.121112 46.649792 88.453087) to (117.41013 77.731908 120.61812)
  create_atoms CPU = 0.000 seconds
create_atoms 2 single 95.75036 55.7015 102.60496688053698
Created 1 atoms
  using lattice units in orthogonal box = (85.121112 46.649792 88.453087) to (117.41013 77.731908 120.61812)
  create_atoms CPU = 0.000 seconds
create_atoms 5 single 95.74502 58.8214 104.13269394253652
Created 1 atoms
  using lattice units in orthogonal box = (85.121112 46.649792 88.453087) to (117.41013 77.731908 120.61812)
  create_atoms CPU = 0.000 seconds
create_atoms 1 single 96.2503 56.1219 105.3827569506519
Created 1 atoms
  using lattice units in orthogonal box = (85.121112 46.649792 88.453087) to (117.41013 77.731908 120.61812)
  create_atoms CPU = 0.000 seconds
create_atoms 3 single 94.081 57.8846 105.32737044385527
Created 1 atoms
  using lattice units in orthogonal box = (85.121112 46.649792 88.453087) to (117.41013 77.731908 120.61812)
  create_atoms CPU = 0.000 seconds
create_atoms 2 single 93.14782000000001 59.5649 102.84103880290219
Created 1 atoms
  using lattice units in orthogonal box = (85.121112 46.649792 88.453087) to (117.41013 77.731908 120.61812)
  create_atoms CPU = 0.000 seconds
create_atoms 1 single 93.32954 56.8761 102.73162432626812
Created 1 atoms
  using lattice units in orthogonal box = (85.121112 46.649792 88.453087) to (117.41013 77.731908 120.61812)
  create_atoms CPU = 0.000 seconds
create_atoms 5 single 99.4167 55.7708 106.65246649325361
Created 1 atoms
  using lattice units in orthogonal box = (85.121112 46.649792 88.453087) to (117.41013 77.731908 120.61812)
  create_atoms CPU = 0.000 seconds
create_atoms 2 single 104.13680000000001 55.7945 106.81444589992297
Created 1 atoms
  using lattice units in orthogonal box = (85.121112 46.649792 88.453087) to (117.41013 77.731908 120.61812)
  create_atoms CPU = 0.000 seconds
create_atoms 1 single 98.20708 57.5449 103.76996457444018
Created 1 atoms
  using lattice units in orthogonal box = (85.121112 46.649792 88.453087) to (117.41013 77.731908 120.61812)
  create_atoms CPU = 0.000 seconds
create_atoms 1 single 102.3043 61.368 105.97319801367244
Created 1 atoms
  using lattice units in orthogonal box = (85.121112 46.649792 88.453087) to (117.41013 77.731908 120.61812)
  create_atoms CPU = 0.000 seconds
create_atoms 2 single 102.63448 60.8114 103.35352074503542
Created 1 atoms
  using lattice units in orthogonal box = (85.121112 46.649792 88.453087) to (117.41013 77.731908 120.61812)
  create_atoms CPU = 0.000 seconds
create_atoms 3 single 103.39590000000001 59.0424 105.25003834002604
Created 1 atoms
  using lattice units in orthogonal box = (85.121112 46.649792 88.453087) to (117.41013 77.731908 120.61812)
  create_atoms CPU = 0.000 seconds
create_atoms 1 single 102.3074 57.9653 102.60402635494988
Created 1 atoms
  using lattice units in orthogonal box = (85.121112 46.649792 88.453087) to (117.41013 77.731908 120.61812)
  create_atoms CPU = 0.000 seconds
create_atoms 3 single 100.23818 56.4308 102.822646302532
Created 1 atoms
  using lattice units in orthogonal box = (85.121112 46.649792 88.453087) to (117.41013 77.731908 120.61812)
  create_atoms CPU = 0.000 seconds
create_atoms 1 single 101.46820000000001 57.064 105.57817726708524
Created 1 atoms
  using lattice units in orthogonal box = (85.121112 46.649792 88.453087) to (117.41013 77.731908 120.61812)
  create_atoms CPU = 0.000 seconds
create_atoms 1 single 100.4023 59.5748 103.76557545503366
Created 1 atoms
  using lattice units in orthogonal box = (85.121112 46.649792 88.453087) to (117.41013 77.731908 120.61812)
  create_atoms CPU = 0.000 seconds
create_atoms 3 single 100.0564 62.1408 106.57513438942438
Created 1 atoms
  using lattice units in orthogonal box = (85.121112 46.649792 88.453087) to (117.41013 77.731908 120.61812)
  create_atoms CPU = 0.000 seconds
create_atoms 3 single 100.5682 59.4767 106.37553395927053
Created 1 atoms
  using lattice units in orthogonal box = (85.121112 46.649792 88.453087) to (117.41013 77.731908 120.61812)
  create_atoms CPU = 0.000 seconds
create_atoms 3 single 97.5952 60.0978 101.91901021900303
Created 1 atoms
  using lattice units in orthogonal box = (85.121112 46.649792 88.453087) to (117.41013 77.731908 120.61812)
  create_atoms CPU = 0.000 seconds
create_atoms 1 single 105.2124 61.8323 106.0724757145343
Created 1 atoms
  using lattice units in orthogonal box = (85.121112 46.649792 88.453087) to (117.41013 77.731908 120.61812)
  create_atoms CPU = 0.000 seconds
create_atoms 1 single 108.8959 59.449 104.62929145253186
Created 1 atoms
  using lattice units in orthogonal box = (85.121112 46.649792 88.453087) to (117.41013 77.731908 120.61812)
  create_atoms CPU = 0.000 seconds
create_atoms 1 single 107.8018 56.679 104.13969563301836
Created 1 atoms
  using lattice units in orthogonal box = (85.121112 46.649792 88.453087) to (117.41013 77.731908 120.61812)
  create_atoms CPU = 0.000 seconds
create_atoms 2 single 104.96440000000001 57.7361 102.14578138834013
Created 1 atoms
  using lattice units in orthogonal box = (85.121112 46.649792 88.453087) to (117.41013 77.731908 120.61812)
  create_atoms CPU = 0.000 seconds
create_atoms 2 single 107.46072000000001 58.3137 101.90835092901575
Created 1 atoms
  using lattice units in orthogonal box = (85.121112 46.649792 88.453087) to (117.41013 77.731908 120.61812)
  create_atoms CPU = 0.000 seconds
create_atoms 1 single 105.60582000000001 59.5776 104.22465644438752
Created 1 atoms
  using lattice units in orthogonal box = (85.121112 46.649792 88.453087) to (117.41013 77.731908 120.61812)
  create_atoms CPU = 0.000 seconds
create_atoms 1 single 105.001 56.704 104.5927154574775
Created 1 atoms
  using lattice units in orthogonal box = (85.121112 46.649792 88.453087) to (117.41013 77.731908 120.61812)
  create_atoms CPU = 0.000 seconds
create_atoms 4 single 105.54849999999999 57.9683 107.15199008285329
Created 1 atoms
  using lattice units in orthogonal box = (85.121112 46.649792 88.453087) to (117.41013 77.731908 120.61812)
  create_atoms CPU = 0.000 seconds
create_atoms 4 single 108.09410000000001 60.8915 107.07256792216381
Created 1 atoms
  using lattice units in orthogonal box = (85.121112 46.649792 88.453087) to (117.41013 77.731908 120.61812)
  create_atoms CPU = 0.000 seconds
create_atoms 4 single 107.8218 58.0507 106.70471791475985
Created 1 atoms
  using lattice units in orthogonal box = (85.121112 46.649792 88.453087) to (117.41013 77.731908 120.61812)
  create_atoms CPU = 0.000 seconds
create_atoms 2 single 107.40716 61.8222 104.26185945649996
Created 1 atoms
  using lattice units in orthogonal box = (85.121112 46.649792 88.453087) to (117.41013 77.731908 120.61812)
  create_atoms CPU = 0.000 seconds
create_atoms 1 single 109.55334 56.5541 102.24882119155043
Created 1 atoms
  using lattice units in orthogonal box = (85.121112 46.649792 88.453087) to (117.41013 77.731908 120.61812)
  create_atoms CPU = 0.000 seconds
create_atoms 1 single 114.4748 58.1816 106.60857529918836
Created 1 atoms
  using lattice units in orthogonal box = (85.121112 46.649792 88.453087) to (117.41013 77.731908 120.61812)
  create_atoms CPU = 0.000 seconds
create_atoms 4 single 111.8002 60.4364 104.88845850320283
Created 1 atoms
  using lattice units in orthogonal box = (85.121112 46.649792 88.453087) to (117.41013 77.731908 120.61812)
  create_atoms CPU = 0.000 seconds
create_atoms 1 single 110.1022 62.0591 106.07770085668494
Created 1 atoms
  using lattice units in orthogonal box = (85.121112 46.649792 88.453087) to (117.41013 77.731908 120.61812)
  create_atoms CPU = 0.000 seconds
create_atoms 3 single 110.15702 59.1909 102.73392338881439
Created 1 atoms
  using lattice units in orthogonal box = (85.121112 46.649792 88.453087) to (117.41013 77.731908 120.61812)
  create_atoms CPU = 0.000 seconds
create_atoms 3 single 114.3289 61.053 105.23854302729465
Created 1 atoms
  using lattice units in orthogonal box = (85.121112 46.649792 88.453087) to (117.41013 77.731908 120.61812)
  create_atoms CPU = 0.000 seconds
create_atoms 1 single 109.27634 61.9488 102.61562617052427
Created 1 atoms
  using lattice units in orthogonal box = (85.121112 46.649792 88.453087) to (117.41013 77.731908 120.61812)
  create_atoms CPU = 0.000 seconds
create_atoms 3 single 112.33616 56.2045 102.75231588918459
Created 1 atoms
  using lattice units in orthogonal box = (85.121112 46.649792 88.453087) to (117.41013 77.731908 120.61812)
  create_atoms CPU = 0.000 seconds
create_atoms 1 single 113.43962 58.6346 103.6561609783996
Created 1 atoms
  using lattice units in orthogonal box = (85.121112 46.649792 88.453087) to (117.41013 77.731908 120.61812)
  create_atoms CPU = 0.000 seconds
create_atoms 1 single 111.89959999999999 61.029 102.10816036485562
Created 1 atoms
  using lattice units in orthogonal box = (85.121112 46.649792 88.453087) to (117.41013 77.731908 120.61812)
  create_atoms CPU = 0.000 seconds
create_atoms 5 single 111.4239 57.6362 104.90204387279447
Created 1 atoms
  using lattice units in orthogonal box = (85.121112 46.649792 88.453087) to (117.41013 77.731908 120.61812)
  create_atoms CPU = 0.000 seconds
create_atoms 2 single 112.98310000000001 62.0391 107.06107260943243
Created 1 atoms
  using lattice units in orthogonal box = (85.121112 46.649792 88.453087) to (117.41013 77.731908 120.61812)
  create_atoms CPU = 0.000 seconds
create_atoms 2 single 110.19359999999999 57.278 106.67545711871635
Created 1 atoms
  using lattice units in orthogonal box = (85.121112 46.649792 88.453087) to (117.41013 77.731908 120.61812)
  create_atoms CPU = 0.000 seconds
create_atoms 2 single 113.2651 55.6356 105.33155055757578
Created 1 atoms
  using lattice units in orthogonal box = (85.121112 46.649792 88.453087) to (117.41013 77.731908 120.61812)
  create_atoms CPU = 0.000 seconds
create_atoms 1 single 94.9602 55.1859 110.6277546414486
Created 1 atoms
  using lattice units in orthogonal box = (85.121112 46.649792 88.453087) to (117.41013 77.731908 120.61812)
  create_atoms CPU = 0.000 seconds
create_atoms 2 single 94.3755 54.0222 107.92322106428544
Created 1 atoms
  using lattice units in orthogonal box = (85.121112 46.649792 88.453087) to (117.41013 77.731908 120.61812)
  create_atoms CPU = 0.000 seconds
create_atoms 2 single 99.3729 54.3678 110.57654824837249
Created 1 atoms
  using lattice units in orthogonal box = (85.121112 46.649792 88.453087) to (117.41013 77.731908 120.61812)
  create_atoms CPU = 0.000 seconds
create_atoms 1 single 98.58590000000001 51.514 108.84911625337608
Created 1 atoms
  using lattice units in orthogonal box = (85.121112 46.649792 88.453087) to (117.41013 77.731908 120.61812)
  create_atoms CPU = 0.000 seconds
create_atoms 1 single 97.3888 54.371 107.99114791224356
Created 1 atoms
  using lattice units in orthogonal box = (85.121112 46.649792 88.453087) to (117.41013 77.731908 120.61812)
  create_atoms CPU = 0.000 seconds
create_atoms 1 single 96.663 52.8658 110.10942054010667
Created 1 atoms
  using lattice units in orthogonal box = (85.121112 46.649792 88.453087) to (117.41013 77.731908 120.61812)
  create_atoms CPU = 0.000 seconds
create_atoms 3 single 95.663 51.6178 107.58672190978524
Created 1 atoms
  using lattice units in orthogonal box = (85.121112 46.649792 88.453087) to (117.41013 77.731908 120.61812)
  create_atoms CPU = 0.000 seconds
create_atoms 2 single 98.2351 53.9177 112.50462570195286
Created 1 atoms
  using lattice units in orthogonal box = (85.121112 46.649792 88.453087) to (117.41013 77.731908 120.61812)
  create_atoms CPU = 0.000 seconds
create_atoms 1 single 100.03020000000001 52.1054 111.94971560555656
Created 1 atoms
  using lattice units in orthogonal box = (85.121112 46.649792 88.453087) to (117.41013 77.731908 120.61812)
  create_atoms CPU = 0.000 seconds
create_atoms 3 single 102.6757 52.0196 108.28793598639902
Created 1 atoms
  using lattice units in orthogonal box = (85.121112 46.649792 88.453087) to (117.41013 77.731908 120.61812)
  create_atoms CPU = 0.000 seconds
create_atoms 1 single 104.9267 53.2963 108.1520822904828
Created 1 atoms
  using lattice units in orthogonal box = (85.121112 46.649792 88.453087) to (117.41013 77.731908 120.61812)
  create_atoms CPU = 0.000 seconds
create_atoms 2 single 103.62280000000001 53.5639 110.25154440660366
Created 1 atoms
  using lattice units in orthogonal box = (85.121112 46.649792 88.453087) to (117.41013 77.731908 120.61812)
  create_atoms CPU = 0.000 seconds
create_atoms 1 single 105.0794 51.1306 110.40934369955251
Created 1 atoms
  using lattice units in orthogonal box = (85.121112 46.649792 88.453087) to (117.41013 77.731908 120.61812)
  create_atoms CPU = 0.000 seconds
create_atoms 1 single 103.19200000000001 49.5477 107.77587205563785
Created 1 atoms
  using lattice units in orthogonal box = (85.121112 46.649792 88.453087) to (117.41013 77.731908 120.61812)
  create_atoms CPU = 0.000 seconds
create_atoms 5 single 102.08420000000001 54.1029 111.94031034968545
Created 1 atoms
  using lattice units in orthogonal box = (85.121112 46.649792 88.453087) to (117.41013 77.731908 120.61812)
  create_atoms CPU = 0.000 seconds
create_atoms 1 single 101.9748 51.1996 110.43964952402612
Created 1 atoms
  using lattice units in orthogonal box = (85.121112 46.649792 88.453087) to (117.41013 77.731908 120.61812)
  create_atoms CPU = 0.000 seconds
create_atoms 1 single 100.6614 53.6771 108.80418003088072
Created 1 atoms
  using lattice units in orthogonal box = (85.121112 46.649792 88.453087) to (117.41013 77.731908 120.61812)
  create_atoms CPU = 0.000 seconds
create_atoms 1 single 104.5948 52.494 112.86098039662545
Created 1 atoms
  using lattice units in orthogonal box = (85.121112 46.649792 88.453087) to (117.41013 77.731908 120.61812)
  create_atoms CPU = 0.000 seconds
create_atoms 1 single 106.4206 54.3623 111.12936828790853
Created 1 atoms
  using lattice units in orthogonal box = (85.121112 46.649792 88.453087) to (117.41013 77.731908 120.61812)
  create_atoms CPU = 0.000 seconds
create_atoms 1 single 107.60770000000001 51.9763 112.95712301219694
Created 1 atoms
  using lattice units in orthogonal box = (85.121112 46.649792 88.453087) to (117.41013 77.731908 120.61812)
  create_atoms CPU = 0.000 seconds
create_atoms 1 single 109.9991 53.9219 110.6695557786536
Created 1 atoms
  using lattice units in orthogonal box = (85.121112 46.649792 88.453087) to (117.41013 77.731908 120.61812)
  create_atoms CPU = 0.000 seconds
create_atoms 2 single 107.6396 52.3215 110.29752565752915
Created 1 atoms
  using lattice units in orthogonal box = (85.121112 46.649792 88.453087) to (117.41013 77.731908 120.61812)
  create_atoms CPU = 0.000 seconds
create_atoms 1 single 108.058 52.6738 107.84275387516583
Created 1 atoms
  using lattice units in orthogonal box = (85.121112 46.649792 88.453087) to (117.41013 77.731908 120.61812)
  create_atoms CPU = 0.000 seconds
create_atoms 1 single 106.19630000000001 50.461 108.14163200618154
Created 1 atoms
  using lattice units in orthogonal box = (85.121112 46.649792 88.453087) to (117.41013 77.731908 120.61812)
  create_atoms CPU = 0.000 seconds
create_atoms 3 single 112.62030000000001 55.2513 110.45218986518762
Created 1 atoms
  using lattice units in orthogonal box = (85.121112 46.649792 88.453087) to (117.41013 77.731908 120.61812)
  create_atoms CPU = 0.000 seconds
create_atoms 1 single 110.8244 53.9655 108.04026424845944
Created 1 atoms
  using lattice units in orthogonal box = (85.121112 46.649792 88.453087) to (117.41013 77.731908 120.61812)
  create_atoms CPU = 0.000 seconds
create_atoms 1 single 95.0522 57.6051 112.42833862655375
Created 1 atoms
  using lattice units in orthogonal box = (85.121112 46.649792 88.453087) to (117.41013 77.731908 120.61812)
  create_atoms CPU = 0.000 seconds
create_atoms 1 single 94.3117 59.9961 108.90136767488232
Created 1 atoms
  using lattice units in orthogonal box = (85.121112 46.649792 88.453087) to (117.41013 77.731908 120.61812)
  create_atoms CPU = 0.000 seconds
create_atoms 2 single 93.3659 59.6517 111.17116942511353
Created 1 atoms
  using lattice units in orthogonal box = (85.121112 46.649792 88.453087) to (117.41013 77.731908 120.61812)
  create_atoms CPU = 0.000 seconds
create_atoms 2 single 93.7286 57.5697 109.62243729166849
Created 1 atoms
  using lattice units in orthogonal box = (85.121112 46.649792 88.453087) to (117.41013 77.731908 120.61812)
  create_atoms CPU = 0.000 seconds
create_atoms 1 single 92.192 61.825 109.7959120110692
Created 1 atoms
  using lattice units in orthogonal box = (85.121112 46.649792 88.453087) to (117.41013 77.731908 120.61812)
  create_atoms CPU = 0.000 seconds
create_atoms 1 single 91.1298 58.9852 108.72998301234185
Created 1 atoms
  using lattice units in orthogonal box = (85.121112 46.649792 88.453087) to (117.41013 77.731908 120.61812)
  create_atoms CPU = 0.000 seconds
create_atoms 2 single 92.2594 55.78 107.8709696427792
Created 1 atoms
  using lattice units in orthogonal box = (85.121112 46.649792 88.453087) to (117.41013 77.731908 120.61812)
  create_atoms CPU = 0.000 seconds
create_atoms 3 single 97.3153 55.6353 110.34664199374501
Created 1 atoms
  using lattice units in orthogonal box = (85.121112 46.649792 88.453087) to (117.41013 77.731908 120.61812)
  create_atoms CPU = 0.000 seconds
create_atoms 1 single 96.2474 60.3371 112.06571376130042
Created 1 atoms
  using lattice units in orthogonal box = (85.121112 46.649792 88.453087) to (117.41013 77.731908 120.61812)
  create_atoms CPU = 0.000 seconds
create_atoms 3 single 98.9867 61.362 112.530751412706
Created 1 atoms
  using lattice units in orthogonal box = (85.121112 46.649792 88.453087) to (117.41013 77.731908 120.61812)
  create_atoms CPU = 0.000 seconds
create_atoms 3 single 97.6907 62.124 107.43101267369664
Created 1 atoms
  using lattice units in orthogonal box = (85.121112 46.649792 88.453087) to (117.41013 77.731908 120.61812)
  create_atoms CPU = 0.000 seconds
create_atoms 1 single 100.5321 62.0877 110.9632087675187
Created 1 atoms
  using lattice units in orthogonal box = (85.121112 46.649792 88.453087) to (117.41013 77.731908 120.61812)
  create_atoms CPU = 0.000 seconds
create_atoms 1 single 97.4155 60.9392 109.8418932619947
Created 1 atoms
  using lattice units in orthogonal box = (85.121112 46.649792 88.453087) to (117.41013 77.731908 120.61812)
  create_atoms CPU = 0.000 seconds
create_atoms 1 single 99.4544 60.1281 108.26285530407603
Created 1 atoms
  using lattice units in orthogonal box = (85.121112 46.649792 88.453087) to (117.41013 77.731908 120.61812)
  create_atoms CPU = 0.000 seconds
create_atoms 1 single 99.8478 56.8157 111.8169969949307
Created 1 atoms
  using lattice units in orthogonal box = (85.121112 46.649792 88.453087) to (117.41013 77.731908 120.61812)
  create_atoms CPU = 0.000 seconds
create_atoms 3 single 99.5476 59.2274 110.6988165746971
Created 1 atoms
  using lattice units in orthogonal box = (85.121112 46.649792 88.453087) to (117.41013 77.731908 120.61812)
  create_atoms CPU = 0.000 seconds
create_atoms 1 single 98.4625 57.2035 108.74356838193347
Created 1 atoms
  using lattice units in orthogonal box = (85.121112 46.649792 88.453087) to (117.41013 77.731908 120.61812)
  create_atoms CPU = 0.000 seconds
create_atoms 5 single 96.73800000000001 58.1229 110.497126087683
Created 1 atoms
  using lattice units in orthogonal box = (85.121112 46.649792 88.453087) to (117.41013 77.731908 120.61812)
  create_atoms CPU = 0.000 seconds
create_atoms 1 single 95.2016 56.6623 107.94307660445783
Created 1 atoms
  using lattice units in orthogonal box = (85.121112 46.649792 88.453087) to (117.41013 77.731908 120.61812)
  create_atoms CPU = 0.000 seconds
create_atoms 2 single 98.7666 58.9439 112.83589971430246
Created 1 atoms
  using lattice units in orthogonal box = (85.121112 46.649792 88.453087) to (117.41013 77.731908 120.61812)
  create_atoms CPU = 0.000 seconds
create_atoms 4 single 106.1823 62.0445 111.0687566389613
Created 1 atoms
  using lattice units in orthogonal box = (85.121112 46.649792 88.453087) to (117.41013 77.731908 120.61812)
  create_atoms CPU = 0.000 seconds
create_atoms 3 single 101.1685 56.0993 110.12091585283805
Created 1 atoms
  using lattice units in orthogonal box = (85.121112 46.649792 88.453087) to (117.41013 77.731908 120.61812)
  create_atoms CPU = 0.000 seconds
create_atoms 1 single 103.6683 61.3484 112.13259558082842
Created 1 atoms
  using lattice units in orthogonal box = (85.121112 46.649792 88.453087) to (117.41013 77.731908 120.61812)
  create_atoms CPU = 0.000 seconds
create_atoms 1 single 102.2653 61.3151 108.97242960813081
Created 1 atoms
  using lattice units in orthogonal box = (85.121112 46.649792 88.453087) to (117.41013 77.731908 120.61812)
  create_atoms CPU = 0.000 seconds
create_atoms 2 single 104.7474 59.8521 110.51593659942525
Created 1 atoms
  using lattice units in orthogonal box = (85.121112 46.649792 88.453087) to (117.41013 77.731908 120.61812)
  create_atoms CPU = 0.000 seconds
create_atoms 2 single 105.30560000000001 58.4089 112.53493152642649
Created 1 atoms
  using lattice units in orthogonal box = (85.121112 46.649792 88.453087) to (117.41013 77.731908 120.61812)
  create_atoms CPU = 0.000 seconds
create_atoms 1 single 104.1996 55.8989 111.81490693807045
Created 1 atoms
  using lattice units in orthogonal box = (85.121112 46.649792 88.453087) to (117.41013 77.731908 120.61812)
  create_atoms CPU = 0.000 seconds
create_atoms 1 single 103.2696 58.8758 107.92322106428544
Created 1 atoms
  using lattice units in orthogonal box = (85.121112 46.649792 88.453087) to (117.41013 77.731908 120.61812)
  create_atoms CPU = 0.000 seconds
create_atoms 1 single 105.6029 57.2404 110.00805278238455
Created 1 atoms
  using lattice units in orthogonal box = (85.121112 46.649792 88.453087) to (117.41013 77.731908 120.61812)
  create_atoms CPU = 0.000 seconds
create_atoms 1 single 102.8164 55.7526 108.60144451543648
Created 1 atoms
  using lattice units in orthogonal box = (85.121112 46.649792 88.453087) to (117.41013 77.731908 120.61812)
  create_atoms CPU = 0.000 seconds
create_atoms 2 single 100.8693 57.7777 108.15312731891291
Created 1 atoms
  using lattice units in orthogonal box = (85.121112 46.649792 88.453087) to (117.41013 77.731908 120.61812)
  create_atoms CPU = 0.000 seconds
create_atoms 1 single 102.3421 58.6077 110.77510365009621
Created 1 atoms
  using lattice units in orthogonal box = (85.121112 46.649792 88.453087) to (117.41013 77.731908 120.61812)
  create_atoms CPU = 0.000 seconds
create_atoms 2 single 111.6622 56.0457 112.36877200603664
Created 1 atoms
  using lattice units in orthogonal box = (85.121112 46.649792 88.453087) to (117.41013 77.731908 120.61812)
  create_atoms CPU = 0.000 seconds
create_atoms 1 single 107.1289 55.4493 108.48335630283238
Created 1 atoms
  using lattice units in orthogonal box = (85.121112 46.649792 88.453087) to (117.41013 77.731908 120.61812)
  create_atoms CPU = 0.000 seconds
create_atoms 2 single 109.2423 60.8929 110.11151059696692
Created 1 atoms
  using lattice units in orthogonal box = (85.121112 46.649792 88.453087) to (117.41013 77.731908 120.61812)
  create_atoms CPU = 0.000 seconds
create_atoms 1 single 110.5294 58.5577 111.67382810000359
Created 1 atoms
  using lattice units in orthogonal box = (85.121112 46.649792 88.453087) to (117.41013 77.731908 120.61812)
  create_atoms CPU = 0.000 seconds
create_atoms 4 single 110.18610000000001 59.3736 108.68609181827661
Created 1 atoms
  using lattice units in orthogonal box = (85.121112 46.649792 88.453087) to (117.41013 77.731908 120.61812)
  create_atoms CPU = 0.000 seconds
create_atoms 5 single 108.6858 56.296 111.31015820632014
Created 1 atoms
  using lattice units in orthogonal box = (85.121112 46.649792 88.453087) to (117.41013 77.731908 120.61812)
  create_atoms CPU = 0.000 seconds
create_atoms 3 single 108.0436 58.1653 109.42910703209539
Created 1 atoms
  using lattice units in orthogonal box = (85.121112 46.649792 88.453087) to (117.41013 77.731908 120.61812)
  create_atoms CPU = 0.000 seconds
create_atoms 1 single 110.11359999999999 56.5203 109.15844466869304
Created 1 atoms
  using lattice units in orthogonal box = (85.121112 46.649792 88.453087) to (117.41013 77.731908 120.61812)
  create_atoms CPU = 0.000 seconds
create_atoms 1 single 107.7514 59.1348 111.92567995166368
Created 1 atoms
  using lattice units in orthogonal box = (85.121112 46.649792 88.453087) to (117.41013 77.731908 120.61812)
  create_atoms CPU = 0.000 seconds
create_atoms 1 single 106.28470000000002 60.2155 108.84284608279533
Created 1 atoms
  using lattice units in orthogonal box = (85.121112 46.649792 88.453087) to (117.41013 77.731908 120.61812)
  create_atoms CPU = 0.000 seconds
create_atoms 1 single 109.88470000000001 61.4886 112.80768394668908
Created 1 atoms
  using lattice units in orthogonal box = (85.121112 46.649792 88.453087) to (117.41013 77.731908 120.61812)
  create_atoms CPU = 0.000 seconds
create_atoms 2 single 107.2589 56.6449 112.96130312591742
Created 1 atoms
  using lattice units in orthogonal box = (85.121112 46.649792 88.453087) to (117.41013 77.731908 120.61812)
  create_atoms CPU = 0.000 seconds
create_atoms 1 single 112.3364 59.4404 107.60657744995761
Created 1 atoms
  using lattice units in orthogonal box = (85.121112 46.649792 88.453087) to (117.41013 77.731908 120.61812)
  create_atoms CPU = 0.000 seconds
create_atoms 1 single 112.9272 58.0287 110.45741500733824
Created 1 atoms
  using lattice units in orthogonal box = (85.121112 46.649792 88.453087) to (117.41013 77.731908 120.61812)
  create_atoms CPU = 0.000 seconds
create_atoms 1 single 111.7747 62.0885 109.07484239428305
Created 1 atoms
  using lattice units in orthogonal box = (85.121112 46.649792 88.453087) to (117.41013 77.731908 120.61812)
  create_atoms CPU = 0.000 seconds
create_atoms 1 single 112.3851 60.711 111.71876432249897
Created 1 atoms
  using lattice units in orthogonal box = (85.121112 46.649792 88.453087) to (117.41013 77.731908 120.61812)
  create_atoms CPU = 0.000 seconds
create_atoms 2 single 115.0912 58.3089 109.44896257226776
Created 1 atoms
  using lattice units in orthogonal box = (85.121112 46.649792 88.453087) to (117.41013 77.731908 120.61812)
  create_atoms CPU = 0.000 seconds
create_atoms 1 single 115.4069 60.7336 108.13745189246104
Created 1 atoms
  using lattice units in orthogonal box = (85.121112 46.649792 88.453087) to (117.41013 77.731908 120.61812)
  create_atoms CPU = 0.000 seconds
create_atoms 2 single 114.3019 60.6122 110.31006599869065
Created 1 atoms
  using lattice units in orthogonal box = (85.121112 46.649792 88.453087) to (117.41013 77.731908 120.61812)
  create_atoms CPU = 0.000 seconds
create_atoms 1 single 112.8483 56.3102 107.9462116897482
Created 1 atoms
  using lattice units in orthogonal box = (85.121112 46.649792 88.453087) to (117.41013 77.731908 120.61812)
  create_atoms CPU = 0.000 seconds
create_atoms 1 single 100.95450000000001 54.7362 114.02723212464481
Created 1 atoms
  using lattice units in orthogonal box = (85.121112 46.649792 88.453087) to (117.41013 77.731908 120.61812)
  create_atoms CPU = 0.000 seconds
create_atoms 1 single 106.9078 54.4739 114.32820031252076
Created 1 atoms
  using lattice units in orthogonal box = (85.121112 46.649792 88.453087) to (117.41013 77.731908 120.61812)
  create_atoms CPU = 0.000 seconds
create_atoms 2 single 104.1774 54.6367 114.53302588482524
Created 1 atoms
  using lattice units in orthogonal box = (85.121112 46.649792 88.453087) to (117.41013 77.731908 120.61812)
  create_atoms CPU = 0.000 seconds
create_atoms 1 single 109.5385 54.3386 113.46187174394724
Created 1 atoms
  using lattice units in orthogonal box = (85.121112 46.649792 88.453087) to (117.41013 77.731908 120.61812)
  create_atoms CPU = 0.000 seconds
create_atoms 3 single 94.7587 59.9823 113.78374050042571
Created 1 atoms
  using lattice units in orthogonal box = (85.121112 46.649792 88.453087) to (117.41013 77.731908 120.61812)
  create_atoms CPU = 0.000 seconds
create_atoms 1 single 96.893 61.7904 114.8047332766577
Created 1 atoms
  using lattice units in orthogonal box = (85.121112 46.649792 88.453087) to (117.41013 77.731908 120.61812)
  create_atoms CPU = 0.000 seconds
create_atoms 1 single 99.897 60.6808 115.22169962027753
Created 1 atoms
  using lattice units in orthogonal box = (85.121112 46.649792 88.453087) to (117.41013 77.731908 120.61812)
  create_atoms CPU = 0.000 seconds
create_atoms 2 single 102.78330000000001 59.9061 115.92186866846119
Created 1 atoms
  using lattice units in orthogonal box = (85.121112 46.649792 88.453087) to (117.41013 77.731908 120.61812)
  create_atoms CPU = 0.000 seconds
create_atoms 1 single 101.4995 59.8446 113.1494082433399
Created 1 atoms
  using lattice units in orthogonal box = (85.121112 46.649792 88.453087) to (117.41013 77.731908 120.61812)
  create_atoms CPU = 0.000 seconds
create_atoms 1 single 100.7967 57.7028 115.13078214685666
Created 1 atoms
  using lattice units in orthogonal box = (85.121112 46.649792 88.453087) to (117.41013 77.731908 120.61812)
  create_atoms CPU = 0.000 seconds
create_atoms 1 single 97.5138 58.7836 114.84339932857232
Created 1 atoms
  using lattice units in orthogonal box = (85.121112 46.649792 88.453087) to (117.41013 77.731908 120.61812)
  create_atoms CPU = 0.000 seconds
create_atoms 1 single 97.8448 56.3497 113.22569531873901
Created 1 atoms
  using lattice units in orthogonal box = (85.121112 46.649792 88.453087) to (117.41013 77.731908 120.61812)
  create_atoms CPU = 0.000 seconds
create_atoms 1 single 102.8018 57.128 113.60817572416472
Created 1 atoms
  using lattice units in orthogonal box = (85.121112 46.649792 88.453087) to (117.41013 77.731908 120.61812)
  create_atoms CPU = 0.000 seconds
create_atoms 3 single 103.20530000000001 55.9399 116.13609949663679
Created 1 atoms
  using lattice units in orthogonal box = (85.121112 46.649792 88.453087) to (117.41013 77.731908 120.61812)
  create_atoms CPU = 0.000 seconds
create_atoms 1 single 106.7269 60.8037 113.72312885147845
Created 1 atoms
  using lattice units in orthogonal box = (85.121112 46.649792 88.453087) to (117.41013 77.731908 120.61812)
  create_atoms CPU = 0.000 seconds
create_atoms 2 single 107.99990000000001 61.9884 118.61490693289298
Created 1 atoms
  using lattice units in orthogonal box = (85.121112 46.649792 88.453087) to (117.41013 77.731908 120.61812)
  create_atoms CPU = 0.000 seconds
create_atoms 2 single 106.46090000000001 60.2799 116.15177492308867
Created 1 atoms
  using lattice units in orthogonal box = (85.121112 46.649792 88.453087) to (117.41013 77.731908 120.61812)
  create_atoms CPU = 0.000 seconds
create_atoms 1 single 107.756 58.2319 115.24260018888002
Created 1 atoms
  using lattice units in orthogonal box = (85.121112 46.649792 88.453087) to (117.41013 77.731908 120.61812)
  create_atoms CPU = 0.000 seconds
create_atoms 1 single 106.9935 55.9294 116.91151059178942
Created 1 atoms
  using lattice units in orthogonal box = (85.121112 46.649792 88.453087) to (117.41013 77.731908 120.61812)
  create_atoms CPU = 0.000 seconds
create_atoms 3 single 104.4032 59.4214 114.16204079213091
Created 1 atoms
  using lattice units in orthogonal box = (85.121112 46.649792 88.453087) to (117.41013 77.731908 120.61812)
  create_atoms CPU = 0.000 seconds
create_atoms 1 single 105.3356 60.7273 118.0485015237653
Created 1 atoms
  using lattice units in orthogonal box = (85.121112 46.649792 88.453087) to (117.41013 77.731908 120.61812)
  create_atoms CPU = 0.000 seconds
create_atoms 1 single 108.05420000000001 58.6609 118.19585053241289
Created 1 atoms
  using lattice units in orthogonal box = (85.121112 46.649792 88.453087) to (117.41013 77.731908 120.61812)
  create_atoms CPU = 0.000 seconds
create_atoms 3 single 105.5193 56.7824 114.41598270065126
Created 1 atoms
  using lattice units in orthogonal box = (85.121112 46.649792 88.453087) to (117.41013 77.731908 120.61812)
  create_atoms CPU = 0.000 seconds
create_atoms 1 single 104.1633 62.0047 115.07330558319978
Created 1 atoms
  using lattice units in orthogonal box = (85.121112 46.649792 88.453087) to (117.41013 77.731908 120.61812)
  create_atoms CPU = 0.000 seconds
create_atoms 1 single 104.9058 58.0761 116.50603956090099
Created 1 atoms
  using lattice units in orthogonal box = (85.121112 46.649792 88.453087) to (117.41013 77.731908 120.61812)
  create_atoms CPU = 0.000 seconds
create_atoms 1 single 110.2561 57.26 114.19861678718529
Created 1 atoms
  using lattice units in orthogonal box = (85.121112 46.649792 88.453087) to (117.41013 77.731908 120.61812)
  create_atoms CPU = 0.000 seconds
create_atoms 2 single 109.57880000000002 59.8609 114.63961878469797
Created 1 atoms
  using lattice units in orthogonal box = (85.121112 46.649792 88.453087) to (117.41013 77.731908 120.61812)
  create_atoms CPU = 0.000 seconds
create_atoms 2 single 109.3497 55.884 116.05040716536654
Created 1 atoms
  using lattice units in orthogonal box = (85.121112 46.649792 88.453087) to (117.41013 77.731908 120.61812)
  create_atoms CPU = 0.000 seconds
create_atoms 2 single 110.7244 58.3979 116.85612408499281
Created 1 atoms
  using lattice units in orthogonal box = (85.121112 46.649792 88.453087) to (117.41013 77.731908 120.61812)
  create_atoms CPU = 0.000 seconds
create_atoms 1 single 112.342 59.5981 114.66887958074146
Created 1 atoms
  using lattice units in orthogonal box = (85.121112 46.649792 88.453087) to (117.41013 77.731908 120.61812)
  create_atoms CPU = 0.000 seconds
create_atoms 1 single 109.385 60.7775 117.03273388968391
Created 1 atoms
  using lattice units in orthogonal box = (85.121112 46.649792 88.453087) to (117.41013 77.731908 120.61812)
  create_atoms CPU = 0.000 seconds
create_atoms 5 single 111.66250000000001 61.7308 116.18521583285265
Created 1 atoms
  using lattice units in orthogonal box = (85.121112 46.649792 88.453087) to (117.41013 77.731908 120.61812)
  create_atoms CPU = 0.000 seconds
create_atoms 3 single 113.4548 58.1474 113.17239886880266
Created 1 atoms
  using lattice units in orthogonal box = (85.121112 46.649792 88.453087) to (117.41013 77.731908 120.61812)
  create_atoms CPU = 0.000 seconds
create_atoms 3 single 114.71079999999999 60.5196 113.92272928163231
Created 1 atoms
  using lattice units in orthogonal box = (85.121112 46.649792 88.453087) to (117.41013 77.731908 120.61812)
  create_atoms CPU = 0.000 seconds
create_atoms 1 single 88.13132 64.1556 95.85659129016264
Created 1 atoms
  using lattice units in orthogonal box = (85.121112 46.649792 88.453087) to (117.41013 77.731908 120.61812)
  create_atoms CPU = 0.000 seconds
create_atoms 3 single 90.01834 64.7526 94.58928531295021
Created 1 atoms
  using lattice units in orthogonal box = (85.121112 46.649792 88.453087) to (117.41013 77.731908 120.61812)
  create_atoms CPU = 0.000 seconds
create_atoms 1 single 91.45228 64.5256 92.79246343019352
Created 1 atoms
  using lattice units in orthogonal box = (85.121112 46.649792 88.453087) to (117.41013 77.731908 120.61812)
  create_atoms CPU = 0.000 seconds
create_atoms 1 single 90.49366 67.414 93.98295981779177
Created 1 atoms
  using lattice units in orthogonal box = (85.121112 46.649792 88.453087) to (117.41013 77.731908 120.61812)
  create_atoms CPU = 0.000 seconds
create_atoms 1 single 93.10473999999999 66.9233 92.93396027963242
Created 1 atoms
  using lattice units in orthogonal box = (85.121112 46.649792 88.453087) to (117.41013 77.731908 120.61812)
  create_atoms CPU = 0.000 seconds
create_atoms 1 single 94.6112 63.843 95.00457961108184
Created 1 atoms
  using lattice units in orthogonal box = (85.121112 46.649792 88.453087) to (117.41013 77.731908 120.61812)
  create_atoms CPU = 0.000 seconds
create_atoms 2 single 92.05554000000001 62.9212 95.31767012874724
Created 1 atoms
  using lattice units in orthogonal box = (85.121112 46.649792 88.453087) to (117.41013 77.731908 120.61812)
  create_atoms CPU = 0.000 seconds
create_atoms 1 single 92.9303 65.7909 95.8035038459123
Created 1 atoms
  using lattice units in orthogonal box = (85.121112 46.649792 88.453087) to (117.41013 77.731908 120.61812)
  create_atoms CPU = 0.000 seconds
create_atoms 1 single 93.27118 68.899 95.39719679227974
Created 1 atoms
  using lattice units in orthogonal box = (85.121112 46.649792 88.453087) to (117.41013 77.731908 120.61812)
  create_atoms CPU = 0.000 seconds
create_atoms 2 single 91.16894 62.4758 90.67565384213259
Created 1 atoms
  using lattice units in orthogonal box = (85.121112 46.649792 88.453087) to (117.41013 77.731908 120.61812)
  create_atoms CPU = 0.000 seconds
create_atoms 1 single 89.60882 62.3032 93.00105110484643
Created 1 atoms
  using lattice units in orthogonal box = (85.121112 46.649792 88.453087) to (117.41013 77.731908 120.61812)
  create_atoms CPU = 0.000 seconds
create_atoms 1 single 93.5918 64.1704 91.26390034544988
Created 1 atoms
  using lattice units in orthogonal box = (85.121112 46.649792 88.453087) to (117.41013 77.731908 120.61812)
  create_atoms CPU = 0.000 seconds
create_atoms 3 single 95.39578 65.3687 93.47382196663493
Created 1 atoms
  using lattice units in orthogonal box = (85.121112 46.649792 88.453087) to (117.41013 77.731908 120.61812)
  create_atoms CPU = 0.000 seconds
create_atoms 1 single 99.91792000000001 64.5856 95.0043706053958
Created 1 atoms
  using lattice units in orthogonal box = (85.121112 46.649792 88.453087) to (117.41013 77.731908 120.61812)
  create_atoms CPU = 0.000 seconds
create_atoms 2 single 98.07979999999999 67.1274 91.80574758646961
Created 1 atoms
  using lattice units in orthogonal box = (85.121112 46.649792 88.453087) to (117.41013 77.731908 120.61812)
  create_atoms CPU = 0.000 seconds
create_atoms 1 single 97.60942 66.916 94.42646988353675
Created 1 atoms
  using lattice units in orthogonal box = (85.121112 46.649792 88.453087) to (117.41013 77.731908 120.61812)
  create_atoms CPU = 0.000 seconds
create_atoms 3 single 97.25626 63.7636 94.83361295991341
Created 1 atoms
  using lattice units in orthogonal box = (85.121112 46.649792 88.453087) to (117.41013 77.731908 120.61812)
  create_atoms CPU = 0.000 seconds
create_atoms 1 single 97.23667999999999 64.5533 92.25531881710933
Created 1 atoms
  using lattice units in orthogonal box = (85.121112 46.649792 88.453087) to (117.41013 77.731908 120.61812)
  create_atoms CPU = 0.000 seconds
create_atoms 2 single 95.40214 66.8748 95.51674804468604
Created 1 atoms
  using lattice units in orthogonal box = (85.121112 46.649792 88.453087) to (117.41013 77.731908 120.61812)
  create_atoms CPU = 0.000 seconds
create_atoms 5 single 95.21000000000001 66.9459 91.41647449624811
Created 1 atoms
  using lattice units in orthogonal box = (85.121112 46.649792 88.453087) to (117.41013 77.731908 120.61812)
  create_atoms CPU = 0.000 seconds
create_atoms 2 single 95.42784 62.5593 92.93500530806254
Created 1 atoms
  using lattice units in orthogonal box = (85.121112 46.649792 88.453087) to (117.41013 77.731908 120.61812)
  create_atoms CPU = 0.000 seconds
create_atoms 2 single 101.39292 68.7755 92.63685869694793
Created 1 atoms
  using lattice units in orthogonal box = (85.121112 46.649792 88.453087) to (117.41013 77.731908 120.61812)
  create_atoms CPU = 0.000 seconds
create_atoms 1 single 103.42672 66.8336 94.21641916908166
Created 1 atoms
  using lattice units in orthogonal box = (85.121112 46.649792 88.453087) to (117.41013 77.731908 120.61812)
  create_atoms CPU = 0.000 seconds
create_atoms 1 single 100.4552 67.4447 94.31486084719943
Created 1 atoms
  using lattice units in orthogonal box = (85.121112 46.649792 88.453087) to (117.41013 77.731908 120.61812)
  create_atoms CPU = 0.000 seconds
create_atoms 2 single 98.56698 63.3024 90.45630237464938
Created 1 atoms
  using lattice units in orthogonal box = (85.121112 46.649792 88.453087) to (117.41013 77.731908 120.61812)
  create_atoms CPU = 0.000 seconds
create_atoms 1 single 102.59342 63.8483 94.25456270678121
Created 1 atoms
[...]
create_atoms 1 single 113.9327 68.6054 109.5900414103346
Created 1 atoms
  using lattice units in orthogonal box = (85.121112 46.649792 88.453087) to (117.41013 77.731908 120.61812)
  create_atoms CPU = 0.000 seconds
create_atoms 1 single 111.18260000000001 67.202 108.4676808763805
Created 1 atoms
  using lattice units in orthogonal box = (85.121112 46.649792 88.453087) to (117.41013 77.731908 120.61812)
  create_atoms CPU = 0.000 seconds
create_atoms 2 single 114.24380000000001 66.2701 111.17430451040391
Created 1 atoms
  using lattice units in orthogonal box = (85.121112 46.649792 88.453087) to (117.41013 77.731908 120.61812)
  create_atoms CPU = 0.000 seconds
create_atoms 1 single 114.7308 66.0854 108.563823491952
Created 1 atoms
  using lattice units in orthogonal box = (85.121112 46.649792 88.453087) to (117.41013 77.731908 120.61812)
  create_atoms CPU = 0.000 seconds
create_atoms 2 single 112.3535 64.8011 109.82621783554282
Created 1 atoms
  using lattice units in orthogonal box = (85.121112 46.649792 88.453087) to (117.41013 77.731908 120.61812)
  create_atoms CPU = 0.000 seconds
create_atoms 1 single 114.19120000000001 63.2017 112.05003833484855
Created 1 atoms
  using lattice units in orthogonal box = (85.121112 46.649792 88.453087) to (117.41013 77.731908 120.61812)
  create_atoms CPU = 0.000 seconds
create_atoms 1 single 114.7582 63.2984 109.4803134251715
Created 1 atoms
  using lattice units in orthogonal box = (85.121112 46.649792 88.453087) to (117.41013 77.731908 120.61812)
  create_atoms CPU = 0.000 seconds
create_atoms 3 single 91.8389 69.6274 107.97860757108207
Created 1 atoms
  using lattice units in orthogonal box = (85.121112 46.649792 88.453087) to (117.41013 77.731908 120.61812)
  create_atoms CPU = 0.000 seconds
create_atoms 1 single 94.1036 69.5818 110.6737358923741
Created 1 atoms
  using lattice units in orthogonal box = (85.121112 46.649792 88.453087) to (117.41013 77.731908 120.61812)
  create_atoms CPU = 0.000 seconds
create_atoms 1 single 100.4736 71.1054 112.09915467106443
Created 1 atoms
  using lattice units in orthogonal box = (85.121112 46.649792 88.453087) to (117.41013 77.731908 120.61812)
  create_atoms CPU = 0.000 seconds
create_atoms 2 single 98.5988 73.1093 110.9506684263572
Created 1 atoms
  using lattice units in orthogonal box = (85.121112 46.649792 88.453087) to (117.41013 77.731908 120.61812)
  create_atoms CPU = 0.000 seconds
create_atoms 1 single 97.4967 72.1878 108.31824181087265
Created 1 atoms
  using lattice units in orthogonal box = (85.121112 46.649792 88.453087) to (117.41013 77.731908 120.61812)
  create_atoms CPU = 0.000 seconds
create_atoms 1 single 97.1955 70.6629 110.99246956356218
Created 1 atoms
  using lattice units in orthogonal box = (85.121112 46.649792 88.453087) to (117.41013 77.731908 120.61812)
  create_atoms CPU = 0.000 seconds
create_atoms 1 single 94.5714 70.7991 108.25658513349528
Created 1 atoms
  using lattice units in orthogonal box = (85.121112 46.649792 88.453087) to (117.41013 77.731908 120.61812)
  create_atoms CPU = 0.000 seconds
create_atoms 3 single 97.2471 69.4411 108.56904863410263
Created 1 atoms
  using lattice units in orthogonal box = (85.121112 46.649792 88.453087) to (117.41013 77.731908 120.61812)
  create_atoms CPU = 0.000 seconds
create_atoms 3 single 100.4013 72.782 109.68304894061572
Created 1 atoms
  using lattice units in orthogonal box = (85.121112 46.649792 88.453087) to (117.41013 77.731908 120.61812)
  create_atoms CPU = 0.000 seconds
create_atoms 1 single 99.9454 70.1409 109.06961725213243
Created 1 atoms
  using lattice units in orthogonal box = (85.121112 46.649792 88.453087) to (117.41013 77.731908 120.61812)
  create_atoms CPU = 0.000 seconds
create_atoms 1 single 105.1838 69.1329 112.22246802581915
Created 1 atoms
  using lattice units in orthogonal box = (85.121112 46.649792 88.453087) to (117.41013 77.731908 120.61812)
  create_atoms CPU = 0.000 seconds
create_atoms 1 single 102.9439 73.6621 109.36745035471802
Created 1 atoms
  using lattice units in orthogonal box = (85.121112 46.649792 88.453087) to (117.41013 77.731908 120.61812)
  create_atoms CPU = 0.000 seconds
create_atoms 3 single 105.00410000000001 71.7015 110.09270008522468
Created 1 atoms
  using lattice units in orthogonal box = (85.121112 46.649792 88.453087) to (117.41013 77.731908 120.61812)
  create_atoms CPU = 0.000 seconds
create_atoms 2 single 103.6455 71.6999 107.58463185292499
Created 1 atoms
  using lattice units in orthogonal box = (85.121112 46.649792 88.453087) to (117.41013 77.731908 120.61812)
  create_atoms CPU = 0.000 seconds
create_atoms 3 single 101.2729 71.7013 107.82812347714409
Created 1 atoms
  using lattice units in orthogonal box = (85.121112 46.649792 88.453087) to (117.41013 77.731908 120.61812)
  create_atoms CPU = 0.000 seconds
create_atoms 1 single 102.8817 71.3976 111.10951274773618
Created 1 atoms
  using lattice units in orthogonal box = (85.121112 46.649792 88.453087) to (117.41013 77.731908 120.61812)
  create_atoms CPU = 0.000 seconds
create_atoms 1 single 103.1732 69.5978 108.97765475028143
Created 1 atoms
  using lattice units in orthogonal box = (85.121112 46.649792 88.453087) to (117.41013 77.731908 120.61812)
  create_atoms CPU = 0.000 seconds
create_atoms 1 single 106.1874 71.7877 112.86516051034594
Created 1 atoms
  using lattice units in orthogonal box = (85.121112 46.649792 88.453087) to (117.41013 77.731908 120.61812)
  create_atoms CPU = 0.000 seconds
create_atoms 3 single 108.0258 69.7177 112.68541562036447
Created 1 atoms
  using lattice units in orthogonal box = (85.121112 46.649792 88.453087) to (117.41013 77.731908 120.61812)
  create_atoms CPU = 0.000 seconds
create_atoms 2 single 106.20930000000001 69.5382 110.24527423602291
Created 1 atoms
  using lattice units in orthogonal box = (85.121112 46.649792 88.453087) to (117.41013 77.731908 120.61812)
  create_atoms CPU = 0.000 seconds
create_atoms 1 single 108.8345 69.1082 109.8168125796717
Created 1 atoms
  using lattice units in orthogonal box = (85.121112 46.649792 88.453087) to (117.41013 77.731908 120.61812)
  create_atoms CPU = 0.000 seconds
create_atoms 1 single 107.8859 71.8152 111.02591047332618
Created 1 atoms
  using lattice units in orthogonal box = (85.121112 46.649792 88.453087) to (117.41013 77.731908 120.61812)
  create_atoms CPU = 0.000 seconds
create_atoms 1 single 106.3378 70.7904 107.98801282695318
Created 1 atoms
  using lattice units in orthogonal box = (85.121112 46.649792 88.453087) to (117.41013 77.731908 120.61812)
  create_atoms CPU = 0.000 seconds
create_atoms 1 single 109.11930000000001 72.2271 108.89405247587145
Created 1 atoms
  using lattice units in orthogonal box = (85.121112 46.649792 88.453087) to (117.41013 77.731908 120.61812)
  create_atoms CPU = 0.000 seconds
create_atoms 2 single 110.7706 70.8204 111.60694628047561
Created 1 atoms
  using lattice units in orthogonal box = (85.121112 46.649792 88.453087) to (117.41013 77.731908 120.61812)
  create_atoms CPU = 0.000 seconds
create_atoms 1 single 105.5939 73.6494 108.50216681457462
Created 1 atoms
  using lattice units in orthogonal box = (85.121112 46.649792 88.453087) to (117.41013 77.731908 120.61812)
  create_atoms CPU = 0.000 seconds
create_atoms 1 single 111.30749999999999 70.2317 108.99960034731406
Created 1 atoms
  using lattice units in orthogonal box = (85.121112 46.649792 88.453087) to (117.41013 77.731908 120.61812)
  create_atoms CPU = 0.000 seconds
create_atoms 2 single 95.1773 64.4265 113.5141231654535
Created 1 atoms
  using lattice units in orthogonal box = (85.121112 46.649792 88.453087) to (117.41013 77.731908 120.61812)
  create_atoms CPU = 0.000 seconds
create_atoms 3 single 103.122 65.3025 117.83740578088008
Created 1 atoms
  using lattice units in orthogonal box = (85.121112 46.649792 88.453087) to (117.41013 77.731908 120.61812)
  create_atoms CPU = 0.000 seconds
create_atoms 5 single 100.2098 66.6704 113.56323950166936
Created 1 atoms
  using lattice units in orthogonal box = (85.121112 46.649792 88.453087) to (117.41013 77.731908 120.61812)
  create_atoms CPU = 0.000 seconds
create_atoms 1 single 102.5834 67.6003 116.0148761987423
Created 1 atoms
  using lattice units in orthogonal box = (85.121112 46.649792 88.453087) to (117.41013 77.731908 120.61812)
  create_atoms CPU = 0.000 seconds
create_atoms 4 single 100.2282 66.2263 116.33151981307013
Created 1 atoms
  using lattice units in orthogonal box = (85.121112 46.649792 88.453087) to (117.41013 77.731908 120.61812)
  create_atoms CPU = 0.000 seconds
create_atoms 1 single 97.4995 66.0718 113.79941592687759
Created 1 atoms
  using lattice units in orthogonal box = (85.121112 46.649792 88.453087) to (117.41013 77.731908 120.61812)
  create_atoms CPU = 0.000 seconds
create_atoms 1 single 102.441 64.6999 115.2039341369654
Created 1 atoms
  using lattice units in orthogonal box = (85.121112 46.649792 88.453087) to (117.41013 77.731908 120.61812)
  create_atoms CPU = 0.000 seconds
create_atoms 4 single 99.51270000000001 63.6331 115.39935445339876
Created 1 atoms
  using lattice units in orthogonal box = (85.121112 46.649792 88.453087) to (117.41013 77.731908 120.61812)
  create_atoms CPU = 0.000 seconds
create_atoms 3 single 101.3801 62.2633 114.10038411475354
Created 1 atoms
  using lattice units in orthogonal box = (85.121112 46.649792 88.453087) to (117.41013 77.731908 120.61812)
  create_atoms CPU = 0.000 seconds
create_atoms 1 single 102.4749 62.3952 117.06199468572741
Created 1 atoms
  using lattice units in orthogonal box = (85.121112 46.649792 88.453087) to (117.41013 77.731908 120.61812)
  create_atoms CPU = 0.000 seconds
create_atoms 3 single 102.7898 66.5899 113.51621322231374
Created 1 atoms
  using lattice units in orthogonal box = (85.121112 46.649792 88.453087) to (117.41013 77.731908 120.61812)
  create_atoms CPU = 0.000 seconds
create_atoms 2 single 105.7822 63.5257 113.05744574148893
Created 1 atoms
  using lattice units in orthogonal box = (85.121112 46.649792 88.453087) to (117.41013 77.731908 120.61812)
  create_atoms CPU = 0.000 seconds
create_atoms 2 single 107.943 64.9285 117.81650521227756
Created 1 atoms
  using lattice units in orthogonal box = (85.121112 46.649792 88.453087) to (117.41013 77.731908 120.61812)
  create_atoms CPU = 0.000 seconds
create_atoms 2 single 106.62910000000001 67.1576 113.74298439165084
Created 1 atoms
  using lattice units in orthogonal box = (85.121112 46.649792 88.453087) to (117.41013 77.731908 120.61812)
  create_atoms CPU = 0.000 seconds
create_atoms 1 single 107.8319 67.3248 116.56142606769761
Created 1 atoms
  using lattice units in orthogonal box = (85.121112 46.649792 88.453087) to (117.41013 77.731908 120.61812)
  create_atoms CPU = 0.000 seconds
create_atoms 1 single 104.8601 68.3074 114.9437220578643
Created 1 atoms
  using lattice units in orthogonal box = (85.121112 46.649792 88.453087) to (117.41013 77.731908 120.61812)
  create_atoms CPU = 0.000 seconds
create_atoms 1 single 105.3311 65.2751 115.06808044104916
Created 1 atoms
  using lattice units in orthogonal box = (85.121112 46.649792 88.453087) to (117.41013 77.731908 120.61812)
  create_atoms CPU = 0.000 seconds
create_atoms 1 single 107.12490000000001 62.8928 115.93127392433232
Created 1 atoms
  using lattice units in orthogonal box = (85.121112 46.649792 88.453087) to (117.41013 77.731908 120.61812)
  create_atoms CPU = 0.000 seconds
create_atoms 2 single 105.3382 66.5562 117.38699852749625
Created 1 atoms
  using lattice units in orthogonal box = (85.121112 46.649792 88.453087) to (117.41013 77.731908 120.61812)
  create_atoms CPU = 0.000 seconds
create_atoms 1 single 105.3728 63.7428 117.72767779571696
Created 1 atoms
  using lattice units in orthogonal box = (85.121112 46.649792 88.453087) to (117.41013 77.731908 120.61812)
  create_atoms CPU = 0.000 seconds
create_atoms 1 single 110.19000000000001 63.7212 117.2250191208269
Created 1 atoms
  using lattice units in orthogonal box = (85.121112 46.649792 88.453087) to (117.41013 77.731908 120.61812)
  create_atoms CPU = 0.000 seconds
create_atoms 1 single 108.38600000000001 65.1647 114.72635614439834
Created 1 atoms
  using lattice units in orthogonal box = (85.121112 46.649792 88.453087) to (117.41013 77.731908 120.61812)
  create_atoms CPU = 0.000 seconds
create_atoms 2 single 110.85520000000001 64.0045 114.45151366727549
Created 1 atoms
  using lattice units in orthogonal box = (85.121112 46.649792 88.453087) to (117.41013 77.731908 120.61812)
  create_atoms CPU = 0.000 seconds
create_atoms 3 single 112.14009999999999 67.6565 114.25609335084215
Created 1 atoms
  using lattice units in orthogonal box = (85.121112 46.649792 88.453087) to (117.41013 77.731908 120.61812)
  create_atoms CPU = 0.000 seconds
create_atoms 3 single 110.10849999999999 66.0824 113.18702926682441
Created 1 atoms
  using lattice units in orthogonal box = (85.121112 46.649792 88.453087) to (117.41013 77.731908 120.61812)
  create_atoms CPU = 0.000 seconds
create_atoms 1 single 109.4946 67.9724 114.70754563265609
Created 1 atoms
  using lattice units in orthogonal box = (85.121112 46.649792 88.453087) to (117.41013 77.731908 120.61812)
  create_atoms CPU = 0.000 seconds
create_atoms 3 single 108.9217 62.4989 114.62812347196659
Created 1 atoms
  using lattice units in orthogonal box = (85.121112 46.649792 88.453087) to (117.41013 77.731908 120.61812)
  create_atoms CPU = 0.000 seconds
create_atoms 1 single 112.7912 65.5042 113.05326562776843
Created 1 atoms
  using lattice units in orthogonal box = (85.121112 46.649792 88.453087) to (117.41013 77.731908 120.61812)
  create_atoms CPU = 0.000 seconds
create_atoms 1 single 113.033 62.5771 114.25504832241201
Created 1 atoms
  using lattice units in orthogonal box = (85.121112 46.649792 88.453087) to (117.41013 77.731908 120.61812)
  create_atoms CPU = 0.000 seconds
create_atoms 1 single 99.3314 69.2551 113.9812508737193
Created 1 atoms
  using lattice units in orthogonal box = (85.121112 46.649792 88.453087) to (117.41013 77.731908 120.61812)
  create_atoms CPU = 0.000 seconds
create_atoms 2 single 101.8877 68.9655 113.58100498498148
Created 1 atoms
  using lattice units in orthogonal box = (85.121112 46.649792 88.453087) to (117.41013 77.731908 120.61812)
  create_atoms CPU = 0.000 seconds
create_atoms 3 single 107.2654 69.6092 114.7838327080552
Created 1 atoms
  using lattice units in orthogonal box = (85.121112 46.649792 88.453087) to (117.41013 77.731908 120.61812)
  create_atoms CPU = 0.000 seconds
create_atoms 2 single 103.8929 70.7285 113.83181180821146
Created 1 atoms
  using lattice units in orthogonal box = (85.121112 46.649792 88.453087) to (117.41013 77.731908 120.61812)
  create_atoms CPU = 0.000 seconds
group surface id  1 2 4 5 6 7 8 9 10 11 12 13 14 16 18 21 22 23 26 29 30 32 34 35 39 40 41 42 44 45 47 48 49 50 53 54 55 56 59 62 66 67 69 70 71 74 75 76 77 78 79 81 82 83 120 122 123 125 128 129 130 133 134 137 138 143 146 147 148 149 151 153 155 159 160 161 163 164 166 172 173 174 211 215 217 218 219 223 224 225 227 229 230 231 232 236 237 238 239 241 243 244 245 246 247 248 249 250 252 253 254 255 256 282 295 298 299 300 301 302 303 304 305 306 307 308 309 311 312 313 315 317 320 322 323 326 327 329 330 331 332 333 334 335 336 337 338 339 340 345 346 347 350 353 355 357 358 360 362 364 365 366 367 368 369 370 371 372 373 374 375 377 378 379 382 384 387 422 425 426 428 430 432 433 434 435 437 439 440 442 443 446 447 448 452 454 457 458 461 462 463 464 467 468 470 474 476 477 511 512 513 515 518 521 522 523 524 527 528 531 532 534 536 538 540 544 547 548 551 552 553 556 557 558 559 560 561 563 566 567 598 599 600 602 603 605 606 607 608 609 610 611 612 613 615 618 619 622 624 625 628 630 631 632 633 634 635 637 638 639 641 643 646 648 649 652 653 654 655 656 657 659 661 662 663 664 665 666 
288 atoms in group surface
    fix freeze surface setforce 0 0 0 
    minimize 0 1e-4 100000 100000
Neighbor list info ...
  update: every = 1 steps, delay = 0 steps, check = yes
  max neighbors/atom: 2000, page size: 100000
  master list distance cutoff = 9.1553683
  ghost atom cutoff = 9.1553683
  binsize = 4.5776842, bins = 8 7 8
  1 neighbor lists, perpetual/occasional/extra = 1 0 0
  (1) pair eam/alloy, perpetual
      attributes: half, newton on
      pair build: half/bin/atomonly/newton
      stencil: half/bin/3d
      bin: standard
Per MPI rank memory allocation (min/avg/max) = 4.082 | 4.287 | 4.34 Mbytes
   Step          Temp          E_pair         E_mol          TotEng         Press          Volume    
         0   0             -3295.789       0             -3295.789       16960.251      21577.978    
       468   0             -3412.744       0             -3412.744      -5980.5004      21577.978    
Loop time of 0.10755 on 96 procs for 468 steps with 666 atoms

99.7% CPU use with 96 MPI tasks x 1 OpenMP threads

Minimization stats:
  Stopping criterion = linesearch alpha is zero
  Energy initial, next-to-last, final = 
     -3295.78900470365  -3412.74395106514  -3412.74395106514
  Force two-norm initial, final = 31.55659 0.020600698
  Force max component initial, final = 2.9903884 0.010012219
  Final line search alpha, max atom move = 1.5258789e-05 1.5277434e-07
  Iterations, force evaluations = 468 901

MPI task timing breakdown:
Section |  min time  |  avg time  |  max time  |%varavg| %total
---------------------------------------------------------------
Pair    | 0.034939   | 0.044057   | 0.059778   |   3.3 | 40.96
Neigh   | 1.9156e-05 | 0.00016853 | 0.00043921 |   0.0 |  0.16
Comm    | 0.021512   | 0.038121   | 0.048339   |   3.6 | 35.44
Output  | 0          | 0          | 0          |   0.0 |  0.00
Modify  | 4.839e-05  | 7.2663e-05 | 0.00012647 |   0.0 |  0.07
Other   |            | 0.02513    |            |       | 23.37

Nlocal:         6.9375 ave          15 max           0 min
Histogram: 18 5 14 5 9 5 6 8 19 7
Nghost:        260.396 ave         492 max          92 min
Histogram: 4 14 16 17 14 12 7 4 0 8
Neighs:        393.927 ave        1162 max           0 min
Histogram: 30 12 12 8 7 5 4 6 6 6

Total # of neighbors = 37817
Ave neighs/atom = 56.782282
Neighbor list builds = 16
Dangerous builds = 0
    unfix freeze
    compute force all property/atom fx fy fz
    dump fcal all custom 1 dump.force id type x y z fx fy fz
    dump_modify fcal sort id
    run 1 
WARNING: No fixes with time integration, atoms won't move (src/verlet.cpp:60)
Per MPI rank memory allocation (min/avg/max) = 2.974 | 3.179 | 3.232 Mbytes
   Step          Temp          E_pair         E_mol          TotEng         Press          Volume    
       468   0             -3412.744       0             -3412.744      -5980.5004      21577.978    
       469   0             -3412.744       0             -3412.744      -5980.5004      21577.978    
Loop time of 0.000642816 on 96 procs for 1 steps with 666 atoms

Performance: 134.409 ns/day, 0.179 hours/ns, 1555.655 timesteps/s, 1.036 Matom-step/s
99.6% CPU use with 96 MPI tasks x 1 OpenMP threads

MPI task timing breakdown:
Section |  min time  |  avg time  |  max time  |%varavg| %total
---------------------------------------------------------------
Pair    | 5.897e-05  | 7.2283e-05 | 0.00010135 |   0.0 | 11.24
Neigh   | 0          | 0          | 0          |   0.0 |  0.00
Comm    | 2.9331e-05 | 5.5152e-05 | 7.202e-05  |   0.0 |  8.58
Output  | 0.00013893 | 0.00028077 | 0.00051276 |   0.0 | 43.68
Modify  | 1.46e-07   | 2.6417e-07 | 6.06e-07   |   0.0 |  0.04
Other   |            | 0.0002343  |            |       | 36.46

Nlocal:         6.9375 ave          16 max           0 min
Histogram: 18 14 5 10 4 9 10 11 12 3
Nghost:        259.938 ave         491 max          91 min
Histogram: 4 14 15 17 14 13 7 4 0 8
Neighs:        393.875 ave        1209 max           0 min
Histogram: 30 13 12 6 8 5 6 6 6 4

Total # of neighbors = 37812
Ave neighs/atom = 56.774775
Neighbor list builds = 0
Dangerous builds = 0
    
Total wall time: 0:00:01
