ITEM: TIMESTEP
834
ITEM: NUMBER OF ATOMS
1985
ITEM: BOX BOUNDS ss ss ss
7.0195722853999996e+01 1.1237641714600001e+02
1.8754678130000002e+01 5.7982021869999997e+01
7.5577203488779375e+01 1.2039563043672207e+02
ITEM: ATOMS id type x y z fx fy fz
107 1 75.4445 26.8078 85.1465 -0.443174 -0.204626 1.33038
352 1 75.673 25.5586 89.7941 -0.216644 0.895597 1.5236
346 1 77.1322 24.9875 87.61 1.42745 0.174447 -1.2573
348 3 75.9967 27.4364 88.0117 0.780857 0.0647552 -1.10107
347 1 73.906 28.2806 89.1343 -0.190048 0.429385 0.535436
349 3 75.9612 28.1701 91.003 -6.74203e-05 7.61113e-05 -5.14198e-06
666 1 75.2823 27.1114 95.7264 0.701229 0.37492 0.125429
667 1 75.3679 26.1726 92.6468 0.523023 -0.162727 0.989901
673 5 76.3312 24.3387 95.5147 0.420768 0.769221 0.458046
1021 3 77.2196 27.4628 102.282 0.126698 0.287646 0.190279
1020 1 76.1181 28.0565 98.97 0.623793 0.253516 -0.212746
7 3 76.768 31.3167 81.0734 -0.57947 0.234201 0.773906
23 4 74.4292 36.0718 79.1151 0.579582 0.196312 0.699678
26 2 76.5994 37.6213 78.664 -0.275175 -1.01532 0.398603
132 1 75.2224 29.3477 83.3777 0.404172 -0.0994346 0.375348
133 1 74.8693 32.2291 82.7957 0.368175 -0.291197 0.437169
136 1 72.9139 32.2351 85.2218 0.885116 -0.280871 0.574851
131 5 71.6118 30.2144 86.6572 -0.0194098 0.248172 1.10043
134 1 74.2043 29.3183 86.1397 0.565533 0.232186 0.865143
135 2 75.8254 31.7298 85.7843 0.000137891 2.40119e-05 0.000124188
172 1 71.8268 37.0667 84.0092 -0.271508 0.224867 1.17227
174 1 73.606 34.632 83.8138 -0.665776 0.635598 0.938791
175 2 75.0017 34.8164 81.7827 1.23275 0.491326 -1.63592
176 1 73.5362 37.1427 81.8871 0.82137 0.0164449 0.211886
440 1 75.2098 34.3444 86.5279 -3.03074e-05 3.81661e-05 -7.32223e-07
178 1 76.4832 35.977 84.1667 0.000232684 -9.5577e-06 -0.000213875
179 3 72.6618 35.1056 86.3076 -0.0623934 0.726472 -0.216292
173 5 70.4896 38.0601 86.2292 0.188844 0.168133 0.517402
177 2 74.2767 36.9456 85.1485 -8.49258e-05 1.10996e-05 -3.72061e-05
183 1 77.112 36.8829 81.419 -0.000256623 -0.00176343 0.000729043
393 2 76.2647 29.7793 89.071 -4.04298e-05 -9.87244e-05 -1.48109e-05
397 1 76.2101 32.8605 90.9423 0.000147196 0.000161332 3.3431e-05
389 1 71.6424 33.1918 87.7813 0.748939 -0.490259 0.875253
390 1 72.1003 30.466 89.857 0.417688 0.473862 -0.174578
391 1 73.1891 32.9804 91.089 -0.000152225 3.86084e-05 0.000127062
394 1 74.4171 31.676 88.2451 -3.59515e-05 0.000153584 -4.7508e-05
398 2 74.7814 30.5413 91.0011 -5.68409e-05 -0.000233111 0.000130073
437 3 71.0601 37.4333 90.6766 -0.23454 -0.304475 1.31926
445 2 76.4846 35.8637 91.0889 3.76191e-05 -2.2261e-05 3.43368e-05
442 1 75.217 36.86 88.4946 0.000130539 7.02491e-05 0.000142293
438 1 73.5493 36.0576 91.5517 6.52677e-05 -9.07711e-05 3.93132e-05
439 2 74.3016 34.3639 89.1327 -8.04529e-05 -8.7016e-05 1.3206e-05
435 1 70.6984 34.4937 90.3065 0.850353 0.15938 0.996757
436 1 72.2553 36.3087 88.71 0.408387 -0.14529 -1.11863
446 2 75.3702 38.3091 91.1914 0.000105628 7.98456e-05 3.98056e-05
710 4 72.8859 29.2354 95.1923 0.954983 0.345166 -0.00381833
711 1 73.5441 28.6253 92.426 -0.315418 0.146562 -0.687077
712 4 71.8889 31.3171 92.9186 0.234733 -0.258038 0.143061
713 1 73.8727 32.3409 96.1624 0.334077 -0.0145394 -0.282553
714 2 74.6085 31.4091 93.5074 -9.44992e-06 -6.688e-05 5.56845e-05
715 1 76.0794 30.0963 96.5342 -0.000164756 -4.94049e-05 -3.71755e-05
716 1 76.0793 29.0969 93.6835 -0.000121656 1.3879e-05 -0.000162149
721 4 76.5891 33.035 97.0532 -0.000148919 -9.70025e-05 -2.1924e-06
775 1 75.9916 37.0371 93.7867 -6.13177e-05 1.02844e-05 -1.39349e-05
766 2 72.5652 33.8862 93.6638 -0.313828 0.205476 0.0682316
767 1 72.2118 34.8053 96.2837 0.467065 0.436441 0.30175
768 3 73.4458 36.3654 94.4735 -7.69595e-05 4.60698e-05 -5.77147e-05
769 1 70.9555 36.2359 93.2552 1.31893 -0.0650112 -0.0610686
770 2 74.9315 34.9783 96.1402 5.35898e-05 -9.52655e-05 1.91703e-05
771 1 71.9966 37.8023 96.4463 0.713905 -0.399795 -0.360804
772 1 75.2203 34.1258 93.5591 -3.7394e-05 -0.000142735 -1.6146e-05
1177 1 77.195 38.3211 97.9519 -5.23613e-05 -0.000203915 0.000196254
1065 4 73.8593 30.281 98.4466 0.725301 0.296875 -0.0883182
1068 1 76.7714 33.1304 102.161 0.162124 0.519835 -0.48737
1066 3 76.2333 32.2301 99.6752 -8.21715e-05 0.000148519 3.00678e-05
1067 1 76.5393 30.101 101.457 -0.0642277 -0.297284 -0.097399
1114 1 74.1139 33.6697 99.2546 -0.379622 0.889259 -0.887303
1115 3 72.2158 35.8968 98.9465 0.397232 -0.134338 -0.213825
1117 1 74.6156 35.6392 101.813 1.14509 0.0192291 -0.751051
1174 2 75.9752 37.5094 100.231 -5.12532e-05 -3.11177e-05 -0.000138406
1120 2 73.2851 38.1565 100.343 0.512825 -0.740387 0.318494
1116 4 76.5537 35.0335 99.2912 -0.000130819 0.000253225 -0.000129859
1118 1 74.4631 36.8111 98.0271 9.39824e-05 5.00375e-05 1.48002e-05
1407 4 77.1317 29.7236 104.733 0.725764 -0.0594603 -0.870363
1457 2 76.2049 33.8818 104.684 0.866296 0.50321 -0.347543
1459 3 76.4198 36.531 104.454 -0.292115 0.25006 -0.388385
50 4 73.7128 41.527 78.8814 0.259875 0.0699062 0.594108
52 1 76.3966 40.5321 78.3929 0.660326 0.588818 0.190069
48 4 71.9606 39.5491 80.5877 0.271688 -0.118294 0.284373
49 1 74.809 38.8895 80.1484 0.553638 0.64462 0.0374844
222 3 76.4904 41.1752 81.1251 0.000673215 -0.000158588 -0.000242905
81 3 75.8016 43.3492 78.2752 0.0616237 -0.00717753 0.585496
80 1 75.1877 43.697 80.8908 0.123722 -0.663542 -0.338912
225 1 75.9364 38.9965 83.1323 -0.000259855 0.000229661 0.000359487
223 2 75.9722 41.9766 83.6224 2.2173e-05 -1.03283e-05 0.000107052
216 1 72.8803 42.625 84.5818 0.907625 0.545077 -0.652754
217 5 71.6886 39.9821 83.5374 0.068651 -0.358204 0.245187
218 2 74.0966 40.1104 84.7476 5.76949e-05 -0.000242554 -2.59845e-05
219 1 73.9353 41.1086 82.0424 -0.000147416 -6.16082e-05 5.12683e-05
220 4 76.6212 41.1984 85.9977 -2.94934e-05 -0.000246871 -4.99455e-05
215 1 71.1409 41.0096 86.2522 0.696752 -0.4839 0.7135
492 5 76.2597 38.4565 86.1674 7.4055e-05 -3.87005e-05 9.72933e-06
262 1 73.2261 45.644 85.1446 -0.0462706 0.257855 0.52916
257 1 75.6238 46.6588 81.4476 0.411251 1.14983 0.656632
258 4 72.326 43.353 81.356 0.284347 -0.132412 0.375549
259 2 73.2514 45.8356 82.0898 -0.330139 -0.441203 0.69776
260 1 75.5101 44.6593 83.6798 -4.97411e-05 9.87372e-06 -4.044e-05
261 1 74.6919 47.9439 84.0341 0.00309896 -0.438358 0.912361
535 1 75.4761 43.8969 86.5501 2.25136e-05 -4.83618e-05 4.21467e-05
542 1 76.3422 46.9055 86.7028 3.59262e-05 5.76755e-05 -0.000188054
488 1 72.3149 39.371 89.4903 0.825217 0.587931 0.507334
489 1 72.1123 42.4357 89.3296 0.364263 -0.790015 0.0166195
490 2 74.3051 40.8807 91.1379 0.000117571 -0.000117975 -5.21057e-05
493 5 73.872 41.4789 87.1331 -1.65968e-05 -0.000105049 0.000202907
494 1 75.5001 39.8833 88.8219 2.93859e-05 2.57931e-05 7.21872e-05
491 1 71.81 41.2728 92.1323 0.270504 0.550033 0.418927
221 1 73.1844 38.626 86.785 4.56263e-05 0.000121544 -0.000136459
537 1 75.1351 43.0541 89.4671 -6.02136e-05 1.76195e-05 -3.75359e-05
826 3 76.0533 43.2283 91.9727 0.000149819 1.38843e-05 6.41676e-05
496 1 77.0919 40.6784 91.3782 -0.000144933 3.16318e-05 -5.62644e-05
873 2 73.5783 43.598 91.9148 -0.000183066 4.8526e-05 -2.87268e-06
540 1 76.166 45.6977 90.707 -0.000160967 -7.8684e-05 0.000255044
532 2 72.714 43.9338 87.2057 0.142973 0.256063 0.100267
533 5 72.8027 45.2488 89.9553 -0.420854 0.143355 0.740275
534 5 70.8469 44.0385 91.2497 0.0757945 -0.29341 1.25011
541 3 74.5278 45.7843 88.4858 1.48435 0.276641 -1.62878
538 1 73.6583 48.1148 87.0378 -0.166589 -1.15158 0.894072
539 1 74.2762 47.8294 90.3874 -0.082302 0.586546 0.417844
883 3 77.1689 47.8894 92.3602 1.28488e-05 -3.97439e-05 -0.00015747
825 2 76.3754 39.7664 93.8432 -3.64085e-05 2.24391e-05 -0.000152424
818 4 70.2003 39.0295 92.8514 0.470888 -0.192946 0.124508
819 1 73.2635 38.7558 93.0966 -0.000106671 5.11888e-05 -1.78952e-05
820 1 72.1738 40.6481 95.478 -0.0511046 -0.186285 -0.491133
821 1 74.5253 41.7749 93.8028 0.000170084 7.63795e-06 3.39489e-05
822 2 74.2866 41.7036 96.6379 0.000107735 0.000108733 -0.000120926
823 4 74.7686 38.8817 95.8996 -9.01103e-07 5.62176e-05 -9.18954e-05
827 1 76.9093 41.0164 96.6334 6.9225e-05 0.000280581 3.10376e-05
878 1 73.8257 45.4726 97.6357 0.411036 -0.354909 0.768723
879 1 75.7037 45.4658 93.5816 0.000356798 -5.47001e-05 -0.000219119
874 1 75.6195 43.8741 96.0195 -0.000177359 -0.000291011 0.000133083
875 1 72.2235 43.608 94.6429 1.21865 -0.176626 -0.0841237
876 1 72.9371 46.0692 93.0508 0.471415 -0.201539 -0.552615
877 3 74.7028 46.9647 95.6961 0.488798 0.117487 -0.405609
1171 1 74.1851 40.0678 98.8284 0.113131 0.220755 -0.810176
1172 1 74.5236 41.7206 101.595 1.166 -0.336351 -0.0640174
1175 1 72.7552 42.8891 98.4829 1.07819 -0.315147 -0.088247
1170 1 75.9567 38.7777 102.552 -0.151135 -0.0313357 -0.156478
1173 3 76.4676 40.0691 99.9872 -3.70667e-05 -2.48934e-05 -0.000149391
1225 1 75.8869 42.9048 99.1267 3.30365e-05 -9.62144e-06 3.81469e-05
1176 3 76.8166 43.3666 101.979 0.000154226 6.30682e-05 -1.2533e-05
1229 1 76.9215 45.8569 98.0913 3.06918e-05 0.000139388 -0.00018266
1224 1 74.7603 44.8587 101.351 0.41681 -0.572143 -0.471192
1227 1 75.8169 47.4049 100.404 0.950105 0.303632 -0.405858
1508 3 75.391 40.5967 104.444 0.846014 0.381712 -0.125177
1510 5 77.0125 41.7949 107.093 -0.0175466 0.409034 0.422201
1558 1 75.7884 43.3887 104.388 1.20829 -0.303194 -0.202509
1560 2 77.0632 44.5566 107.219 0.66921 -0.284732 -0.59777
296 4 76.6843 51.6698 85.0299 -0.493723 0.0364663 0.441481
299 1 76.8956 49.4007 83.0676 -0.428095 0.23438 1.54706
295 3 75.4739 49.6836 86.4112 1.05208 0.282176 -0.16397
586 1 75.9821 50.3179 91.9972 0.337847 -0.65168 -0.255982
583 2 74.6051 50.6013 88.6967 0.526267 -0.619292 0.316332
584 4 76.2669 52.862 90.518 0.424258 -0.290057 0.262658
582 1 76.8195 48.7356 89.1962 5.39166e-05 6.74527e-05 -0.000169801
927 2 75.8855 48.7291 97.7342 -0.240419 -0.432663 0.0599096
929 1 76.706 50.315 95.4774 0.346679 -1.00546 -0.091662
926 3 74.805 48.3287 93.3758 0.372638 -0.67682 0.0516793
2 1 83.2329 27.4168 80.5069 0.0907114 0.441779 0.464798
1 1 80.3283 27.9578 81.1015 0.940791 -0.665916 0.112701
114 3 81.6978 28.1171 83.5641 0.000225954 -4.15173e-05 3.58486e-05
108 3 77.564 25.184 84.7545 0.181836 0.0791631 0.761329
110 1 79.7382 26.4182 83.8964 0.397716 -0.178946 0.0851121
113 1 82.1029 25.5922 82.3181 0.181019 -0.320163 0.979126
116 1 82.7603 25.1262 85.5289 0.280741 0.434499 -0.039782
109 3 77.5403 27.7613 84.4097 0.911827 0.81641 -0.272993
111 1 80.3042 23.9642 86.2599 -0.539778 0.438303 0.634253
358 1 82.0834 28.2341 86.2768 0.000113479 8.05286e-05 -0.000112124
117 1 84.1584 27.2068 83.9043 -4.61771e-05 4.75838e-05 -0.000172132
329 1 81.9576 22.0105 89.5962 -0.140711 -0.132944 1.81833
331 1 83.5537 22.7206 87.5932 0.730311 0.913778 -0.823013
330 5 84.1938 20.2186 91.6681 0.750614 0.145437 -0.270006
328 1 80.2714 22.9583 92.1621 0.579742 -0.213326 -0.335222
361 1 83.9015 27.2822 90.5768 -0.000178365 8.72498e-05 -3.42795e-05
357 1 81.2718 27.8997 89.3387 0.000172248 -0.000231009 5.9524e-05
356 1 82.7848 24.3661 91.2974 -0.000118923 -0.000123968 9.61674e-05
350 2 78.4974 25.1478 90.8297 -1.99749 0.845135 0.849135
353 1 79.3797 26.7798 86.9013 -0.000133557 -0.000145422 7.4065e-05
354 1 80.2152 24.4049 89.3545 1.34057 0.0555588 -1.87571
355 2 82.4692 25.5807 88.2593 0.000143254 -0.000155091 2.41603e-05
351 1 78.2481 27.7147 89.614 -0.000113681 -5.28594e-06 -6.97019e-05
359 2 80.765 26.2155 91.5351 6.25825e-05 -1.67352e-05 -0.000139383
639 2 79.4775 21.9599 94.7102 0.484132 0.797357 0.015458
640 1 82.3535 21.8927 95.5545 0.0997542 0.987886 0.412557
641 2 82.8669 21.9024 92.8462 -0.491593 0.7512 0.0710193
675 3 83.1938 24.1236 93.9947 6.47695e-05 -3.55089e-06 6.67938e-05
677 1 83.0101 26.9392 93.6064 0.000112908 6.98699e-05 -5.22581e-06
668 1 77.8824 24.2003 93.2766 -0.238554 0.265939 0.176051
669 2 78.0867 26.5674 95.4829 -1.84095e-05 6.21248e-05 -0.000163309
670 1 78.2777 27.1822 92.7209 7.16779e-05 -0.000141419 -8.94948e-05
671 1 79.4552 23.842 96.8201 0.848872 0.112037 -0.563704
672 1 80.9948 26.9495 96.4491 5.46575e-05 -0.000380043 0.000215181
679 2 82.2902 24.519 96.3453 -0.000144643 -3.81442e-05 0.000133545
674 1 80.5775 25.0816 94.1657 0.000227537 -3.88525e-05 0.000163269
676 4 83.6339 28.3329 96.0746 -0.000182891 6.62774e-05 4.54576e-05
991 2 82.4356 21.4297 103.104 0.559204 0.260747 0.58543
992 2 80.2686 23.4508 100.392 0.0792127 0.0543512 -0.152116
993 1 81.6585 21.8982 98.5164 0.578167 0.416884 -0.153419
997 1 83.1883 20.0589 100.883 0.479651 0.933305 -0.0595467
1000 1 82.9694 23.1452 101.15 3.78614e-05 0.000189472 0.000148552
994 1 84.085 20.0383 98.1311 0.485334 1.00604 -0.324198
1026 1 78.9101 28.3508 100.588 -0.000203917 -9.71943e-05 0.000137201
1022 4 78.7536 25.115 101.627 0.340317 0.943307 -0.0350568
1023 1 78.3581 25.8596 98.4999 0.306364 0.507634 0.387644
1024 2 81.4732 24.8641 98.7191 0.000137365 -0.000180648 3.74527e-06
1025 1 81.6666 25.9286 101.495 0.000183323 -0.00032884 0.000264949
1027 3 80.7663 27.1698 99.1797 -0.000143258 -0.000142405 0.000211818
1031 1 83.5742 26.9634 98.7935 0.000102262 -6.38092e-05 7.39697e-05
1029 1 84.0375 23.809 98.351 -1.31091e-05 0.000163839 3.42133e-05
1368 2 83.481 24.3411 107.225 0.365095 0.276783 -0.240335
1369 1 81.9816 26.4738 107.671 0.384605 1.74445 -0.997751
1370 1 79.9915 26.717 104.388 0.520927 0.357204 -0.409259
1371 2 82.6044 26.9265 103.905 -0.000145108 -0.000159816 0.000112336
1367 1 81.722 24.035 104.077 0.604506 0.828684 -0.254703
8 2 78.3268 30.2157 79.6618 0.92492 -0.634899 -0.640632
9 3 78.5895 33.0285 78.1675 0.635199 -0.40295 -0.102437
11 1 83.4682 30.2683 79.633 -0.127257 0.677746 0.0116882
12 1 81.1159 32.1646 78.3039 0.655585 0.0534797 0.912787
10 3 80.9633 30.3521 80.308 -0.341348 -0.182882 -0.0989025
140 1 79.2014 32.3696 80.8529 -0.000342797 -0.000229896 0.00016591
24 5 78.4738 35.6346 77.2304 1.0971 0.55106 -0.33168
25 1 77.4125 34.7897 79.5428 -0.830067 -0.128133 1.33735
33 4 82.9813 36.7337 75.833 0.588026 0.277942 0.395527
30 3 79.2617 37.0982 79.3511 0.000116325 -0.000188375 -7.42589e-05
31 1 81.7863 34.8223 77.2946 -0.301287 0.0341202 1.22405
28 2 83.191 34.0452 79.9265 0.000112755 -2.64034e-05 1.87158e-05
29 1 80.4547 34.8794 80.2388 8.63474e-05 0.000286079 -0.000109599
32 1 82.6223 36.7474 79.5179 7.07537e-05 -0.000188279 0.000116944
148 1 82.631 31.2787 85.1052 6.20421e-05 5.89361e-05 0.000153783
137 1 77.8071 28.7317 81.9497 -0.50191 0.38231 0.52478
138 1 80.3326 30.3566 82.936 7.93552e-05 0.000178548 -0.000283822
139 1 77.6218 31.1156 83.8263 -5.83297e-05 -2.31262e-05 3.82576e-05
141 3 79.6603 28.8982 85.0853 -2.03098e-05 -5.52281e-05 6.54045e-05
142 1 80.4812 33.328 83.5185 0.000134563 -3.06449e-05 0.000125652
144 1 83.288 29.9887 82.5121 3.17988e-06 5.39668e-05 1.38702e-05
146 1 83.9978 32.9613 82.7328 2.27899e-05 7.93932e-05 -0.000183496
402 1 79.7857 31.4248 85.9891 -3.46344e-05 -0.00017314 0.000216897
145 2 81.9062 32.4164 81.2309 0.000231565 -1.39986e-05 0.000232775
392 1 77.244 29.3243 86.5014 8.07083e-05 7.42264e-05 1.38432e-05
184 1 78.8181 37.8776 84.482 -2.61866e-05 -6.74371e-05 0.000173768
27 1 80.1802 37.9987 81.74 0.00020019 5.65287e-05 6.8179e-05
180 1 78.0777 33.8397 85.4937 -0.000150306 0.000116061 2.39716e-05
193 1 83.066 36.4596 86.0624 0.000170366 -3.04688e-05 -1.04155e-05
186 3 82.4756 33.9628 85.2567 8.79651e-05 -4.48216e-05 -0.000180558
182 3 79.2358 35.6444 82.7618 -0.000137468 6.82154e-06 -8.3698e-05
181 5 77.3785 33.7874 82.4876 0.000132621 0.000133389 -0.00010328
443 2 77.8935 36.3698 86.7 0.000208745 -9.28794e-05 7.23985e-05
190 1 82.2582 35.6959 82.812 2.85582e-05 1.76804e-05 -6.50351e-05
185 3 80.4192 35.6657 85.0738 0.000141744 -3.88243e-05 8.15442e-05
229 2 81.6128 38.1412 84.262 9.97495e-05 7.16328e-05 -1.02207e-05
404 2 84.0399 28.7881 88.2838 -7.59929e-05 0.000153573 -8.27286e-05
399 2 80.1771 30.5507 90.1155 -6.75483e-05 -0.000146711 0.000195203
400 3 79.6465 29.4178 87.7942 6.57059e-05 6.83524e-05 -0.000211427
401 1 83.093 30.2881 90.8059 -8.92422e-05 -0.000194151 0.000219091
403 1 81.6053 33.1598 90.1435 -9.17832e-05 -4.77552e-05 -1.78565e-06
396 1 77.8353 30.2626 91.5 -4.44794e-05 2.04409e-05 -1.02178e-05
452 2 78.9411 33.0691 90.8233 -2.78672e-05 -0.000119474 0.000218146
395 1 78.0133 31.7317 88.4392 0.000314741 -0.000226862 -8.93691e-06
143 1 82.0241 30.9425 88.039 -9.49822e-05 -1.88182e-05 -0.000146226
441 1 77.4588 34.6781 88.7529 3.96617e-05 -0.000116026 -0.000148115
444 1 77.991 38.0749 89.2429 4.25762e-05 -5.79257e-05 -3.25391e-05
449 2 83.3595 35.281 90.8798 0.000109995 -2.69347e-05 6.61217e-05
448 1 80.4328 34.1476 87.4531 0.000100794 3.57788e-05 2.45784e-05
454 1 83.6204 33.8273 87.8159 0.000107445 -0.000111171 3.69535e-05
447 3 82.1296 35.8861 88.7886 -0.000109422 -0.000154339 0.000125534
450 1 79.8559 35.7746 90.3575 -0.000186105 -7.66992e-05 -5.25649e-05
187 1 80.423 37.3615 87.3135 6.00078e-06 -3.36628e-05 8.8943e-05
776 1 78.5364 37.9318 92.2879 0.000154749 -8.1373e-05 -4.55484e-05
780 4 81.6162 37.4922 92.0953 -0.000102231 -0.000227845 -3.39396e-05
727 4 83.5608 31.0578 96.7488 -0.000116275 -4.12465e-05 0.000379268
717 2 78.6188 29.3141 94.5775 7.5814e-05 7.99575e-05 4.138e-05
719 1 77.3945 31.9554 94.2254 8.78343e-06 5.16991e-05 -9.55171e-05
720 2 81.2259 32.2376 97.698 4.4054e-05 -0.000121401 0.000102571
722 1 78.7541 28.6454 97.3871 8.39207e-06 -4.38996e-06 1.86975e-05
723 3 78.6767 31.3143 96.7978 4.30945e-06 -3.58516e-05 -3.44333e-05
726 5 83.1888 30.2604 93.7934 -5.14737e-05 3.62818e-05 -7.02046e-05
728 1 80.8848 30.2209 95.6585 1.50179e-05 -3.88589e-05 8.06748e-05
730 1 80.3035 31.8644 92.9922 -9.95199e-06 -6.96812e-05 0.000143285
731 2 82.1836 32.7022 94.9906 1.2556e-05 -1.83578e-05 5.46275e-05
453 1 83.336 32.9892 92.5646 -4.89302e-06 4.40512e-05 9.69149e-05
724 1 80.7998 28.8612 92.4926 0.000124124 -5.74421e-05 0.000123394
778 2 81.0603 34.6229 92.7854 -0.000116947 -7.50385e-05 7.97279e-05
783 2 83.0083 37.5974 96.8405 -0.00028813 0.000125791 6.19899e-05
1123 1 77.5787 35.8009 96.245 6.13633e-06 -7.05849e-05 2.03988e-05
777 2 80.2181 36.3091 94.611 -0.000108149 -0.000134179 -1.63221e-05
782 1 83.2911 35.8909 94.0866 -0.000135771 -5.36769e-05 0.00018192
773 1 79.6972 33.656 95.7362 -0.000202913 0.000113749 5.59951e-05
774 1 78.2658 34.7881 93.0666 3.12799e-05 -4.63317e-05 7.49854e-05
779 1 82.4476 34.7985 96.7299 -4.8971e-05 -5.4679e-05 -2.97728e-05
1126 1 80.3126 36.9722 97.372 -5.528e-05 -0.000105927 0.000165698
1069 3 77.4798 30.3968 98.9407 -0.000248497 -5.11239e-06 -7.77026e-05
1070 3 79.8304 30.5557 99.2577 -0.000147759 0.000300105 9.22467e-05
1071 1 79.1739 31.291 101.887 -8.99559e-05 -8.62468e-05 0.000264942
718 5 81.8536 29.3851 98.3501 -0.000189865 0.000188936 0.000356713
1073 1 78.8521 33.0494 99.0156 -0.000107441 0.000115892 2.1873e-05
1075 1 81.7202 29.0108 101.603 4.34893e-05 0.000199229 0.000432305
1076 1 81.8185 32.0019 100.47 -0.000207215 -0.000180226 0.000163138
1078 2 83.8262 30.573 102.683 -0.000319164 7.00972e-05 0.000413797
1122 2 78.8921 35.9468 99.4379 -6.05365e-05 0.000150094 5.89645e-05
1124 1 82.1848 34.4688 102.472 -1.73285e-05 8.46114e-05 0.000109112
1127 5 81.4115 34.8854 99.4971 4.00869e-05 -0.000117158 7.10035e-05
1121 3 79.6143 34.0206 101.387 -0.000195485 -2.2354e-05 7.51159e-05
1125 2 80.5322 36.5718 101.528 -8.51889e-05 -7.62161e-05 -0.000123921
1469 1 83.4989 37.2742 102 5.0539e-06 6.95603e-05 0.000176166
1119 1 77.6973 36.07 102.064 -8.10012e-05 -3.15507e-05 -0.000110423
1130 1 84.1598 36.0739 99.2141 -6.10199e-05 -0.000180924 -0.000101118
1408 4 78.9252 31.1043 107.857 0.162172 0.292961 0.18197
1409 5 79.0071 31.5472 105.19 -0.000368909 0.000455436 -8.25204e-05
1411 1 80.2268 28.9839 106.668 0.583848 -0.54031 -0.515475
1074 1 82.6776 29.2938 105.138 0.000183564 0.000257952 0.000229827
1414 1 81.9258 31.4604 107.392 7.04277e-05 0.000154639 -3.99113e-05
1412 2 84.2141 28.9556 107.523 9.5189e-05 0.000220779 0.000213165
1072 1 81.5171 31.7508 103.832 0.00025758 0.000108748 0.000559363
1410 3 79.9621 29.3283 103.768 9.16026e-05 0.000133878 0.000349874
1464 1 81.1805 36.9051 104.273 3.99349e-06 0.000249356 -3.1613e-05
1416 1 81.7867 34.3055 105.824 -8.41995e-05 0.00035427 0.000233451
1463 4 82.1118 35.7714 108.511 5.68564e-05 0.000109924 0.000289196
1462 1 79.946 37.3737 107.248 9.32566e-05 2.09121e-05 3.63e-05
1466 1 84.1636 36.385 104.888 -8.398e-05 2.47966e-05 3.86065e-05
1456 1 79.1916 34.1726 104.021 1.36313e-05 0.000182418 8.93371e-05
1458 4 79.845 33.7715 108.07 0.311827 0.217788 -0.336908
1465 2 82.5343 37.8992 106.652 0.000142666 -5.19236e-05 6.63614e-05
1460 4 77.4891 35.7236 107.286 0.602285 0.14973 -0.558488
1461 3 78.689 36.4891 105.136 -4.5792e-05 5.95261e-05 2.89561e-05
1691 4 81.2406 31.6977 110.673 0.700104 0.000140731 -0.610653
1694 3 82.9744 33.1203 113.045 0.234022 0.308151 -0.501361
1692 2 82.5243 28.9261 109.563 0.355034 0.407921 -0.77087
1731 4 80.8446 35.0474 111.003 0.658936 0.357974 -0.251386
1732 5 83.142 33.6114 110.42 8.34327e-05 0.000218907 -5.57302e-05
1734 1 84.0596 36.645 110.626 0.000120723 -3.31171e-05 -0.00022962
1733 1 83.7992 35.7104 113.458 0.51835 0.459945 -0.519346
1730 2 79.5779 38.1306 109.773 0.37215 0.160418 0.157585
51 1 78.4847 38.682 77.3792 0.240587 0.27947 0.374566
53 1 78.2671 42.79 77.6709 0.197568 0.949457 0.598797
57 5 80.9936 38.466 76.3214 0.741125 -0.152737 0.390028
58 2 79.8361 40.9001 76.8916 0.738482 0.208234 0.318393
60 1 82.6245 41.0872 77.0904 -0.481249 -0.204329 0.930541
61 1 81.0901 39.3606 79.1533 -8.63004e-05 8.86686e-06 -9.31328e-05
62 3 81.5102 42.0893 79.4005 0.00103662 0.000181744 -0.00030626
59 3 83.6548 43.1309 78.5635 -0.000132342 -0.000104909 2.84339e-05
54 1 79.0207 41.387 80.0846 -0.0023846 -0.0033318 0.00102813
56 3 77.8881 39.1016 80.3452 0.00112838 0.0034256 -0.000538436
63 2 83.6773 41.1776 80.3143 -1.91453e-05 0.000117946 -5.58137e-05
64 4 84.1729 38.8947 78.465 3.66688e-06 2.6177e-05 5.34504e-05
90 1 82.5347 44.1809 80.905 -0.000425557 8.11757e-05 -3.7221e-05
88 1 83.6231 45.8998 78.3336 -0.270518 -0.0535039 0.153882
83 5 79.0409 45.7224 77.7653 0.813369 0.385997 -1.23514
85 4 83.0713 43.6221 75.7419 1.01266 -0.0199408 -0.143883
87 1 81.16 43.9325 77.4776 -0.136318 -0.547267 1.19485
82 1 77.5956 45.5629 79.8958 0.234327 -0.930581 0.795012
84 5 79.5214 47.9968 79.6801 -0.785305 -0.411817 0.576996
86 2 79.8456 43.9305 80.0875 0.000584794 0.00157093 4.84747e-05
89 3 81.1309 45.9193 79.4232 -7.7187e-05 -0.000480778 0.000279931
232 1 81.5667 40.826 81.9986 2.13986e-05 3.27784e-05 0.000144061
233 3 83.4661 42.0571 85.9683 -5.6078e-05 5.90169e-05 0.000310645
235 1 83.8194 39.8767 84.1457 -0.000137348 -6.34183e-05 -3.17777e-05
224 1 78.5699 40.6193 83.0398 -7.46753e-05 2.19341e-05 -0.000319949
228 4 81.0155 40.938 85.0667 1.40112e-05 -1.66512e-05 2.69708e-05
234 1 84.0533 42.6617 83.22 9.59765e-05 0.000197477 -9.88423e-05
230 2 83.0291 38.3764 81.7369 0.000168629 0.000213695 3.30864e-05
55 1 78.0059 43.5949 82.1567 -8.52605e-05 -2.62861e-05 0.000175745
273 1 83.3127 47.6622 84.2299 3.16449e-05 5.56758e-05 7.48336e-05
267 4 77.803 46.4208 84.2069 1.0695e-05 -0.000156717 -6.16863e-05
272 5 82.9973 44.6036 85.2164 -6.35201e-05 0.000204276 -8.46846e-05
268 4 80.5465 46.2982 84.7453 6.74914e-05 3.58909e-05 9.59452e-05
266 2 78.3982 47.6133 82.0117 0.0793063 -1.0774 -0.319169
265 1 80.8605 43.4957 83.3161 8.7576e-05 7.66507e-05 -0.000104182
264 4 78.2898 43.5025 85.2349 4.34148e-05 -0.000239191 3.8491e-05
263 2 80.2001 45.8827 81.8644 2.79981e-05 -9.99025e-05 -0.000175829
275 1 82.4862 47.4761 81.3289 3.07257e-05 3.14936e-05 -6.14963e-05
500 4 79.9586 40.5279 90.5967 -2.41123e-05 -0.00017598 -2.9574e-06
497 4 82.1031 38.8467 89.6611 0.00011104 9.28147e-06 0.000212547
498 4 81.1047 41.7197 88.0205 -3.99001e-05 1.02925e-05 -2.52694e-05
501 1 82.3391 42.5116 90.7748 6.4947e-05 -7.25127e-06 3.04382e-05
495 5 77.8642 41.8215 88.6564 3.56823e-05 -4.45216e-05 -0.000149841
226 5 82.7964 39.3429 86.9024 5.13484e-05 8.21235e-05 0.000111711
227 4 78.9595 39.8517 86.8178 -5.47282e-05 -6.13342e-05 9.06233e-05
835 5 83.61 40.2416 92.1922 -0.000173461 -0.000184568 0.000323951
544 2 78.682 47.0408 90.3345 5.35567e-05 -0.000185909 -5.32895e-05
499 4 80.4238 44.342 86.9546 -0.000135653 9.83907e-05 -3.50614e-05
269 1 83.0856 44.2327 88.2162 0.000115782 -0.00010658 0.000229364
548 1 82.4601 47.0487 87.1266 -0.000212099 0.000143548 1.31325e-06
546 1 80.5812 44.9768 90.213 -4.61751e-05 -0.000111478 7.8968e-05
545 1 77.8416 44.7869 88.4565 -4.59955e-05 0.00013874 -1.39549e-05
552 3 83.506 45.1111 90.6952 -6.87262e-05 -8.08281e-05 0.000174881
536 2 78.3835 43.275 90.9451 -1.43461e-05 2.49255e-05 -8.85619e-05
550 1 82.1106 47.5965 90.0923 8.4047e-05 -3.70675e-05 0.000115692
543 2 80.3483 47.3975 92.244 -0.000162309 -0.000117503 3.99522e-05
588 5 79.5067 47.1889 87.7039 -5.61881e-06 1.7846e-05 -8.85017e-05
824 1 78.5447 38.717 95.2508 -0.000102311 5.51873e-05 1.36633e-06
831 1 81.5183 38.8498 94.7809 -3.3052e-06 -5.19283e-05 -4.01011e-05
828 3 79.5759 40.4543 93.2498 -0.000195818 3.41739e-05 1.95814e-05
829 2 80.043 39.701 97.7236 -1.92604e-05 7.95094e-06 -2.0278e-05
830 1 79.9254 41.6375 95.7429 -0.000367321 2.33931e-05 4.23691e-05
832 2 82.284 41.4511 94.0905 4.46909e-06 -4.24042e-05 8.75981e-05
834 1 82.7289 40.6911 97.0173 1.03471e-05 -4.01446e-05 1.02016e-05
880 1 77.6074 42.4091 93.9411 -5.70372e-05 1.28565e-05 0.000303848
881 4 81.0213 43.0773 97.9629 -4.16673e-05 2.31319e-05 7.02276e-05
833 1 82.3909 43.9374 95.4591 -1.98273e-05 0.000108236 -0.000162603
885 1 80.295 46.185 94.9292 -8.95986e-05 -0.000207372 2.58324e-05
887 3 78.0781 44.7436 95.2061 -1.53261e-05 0.000388711 -4.88027e-05
884 1 77.4556 47.4373 95.2256 -2.63329e-05 -2.49436e-05 -0.000178637
551 1 84.1276 43.5473 92.9818 -3.91665e-05 -4.90281e-05 3.51395e-05
892 1 82.7819 46.65 96.9324 -6.29853e-05 0.000273931 0.000119063
502 1 80.4383 43.3064 93.0634 1.94887e-05 -0.000123238 -4.48242e-05
882 2 78.2691 43.4056 97.2782 -8.54531e-05 -0.000228368 1.73584e-05
889 1 82.404 48.098 94.0548 -7.13932e-05 -0.000127787 -6.50858e-05
888 2 82.1147 45.5378 92.7482 -4.46821e-05 -6.29503e-05 4.42882e-05
547 5 78.4989 45.4662 92.6096 -0.000176179 -9.64767e-05 0.000166488
890 3 84.2286 45.9784 94.5275 8.19852e-05 -0.000125805 -0.000110457
886 4 79.9612 45.9328 97.9822 5.61092e-05 0.000106631 0.000105779
1184 2 83.4174 41.6155 99.5832 -0.00024791 -5.66228e-05 0.000135197
1178 1 80.7601 41.3034 100.436 9.26295e-05 0.00015341 6.72899e-05
1179 1 79.0179 38.6077 100.316 -1.09046e-05 4.66788e-05 3.295e-05
1180 1 78.8204 38.5959 103.473 0.000113574 0.000132245 -0.000175712
1181 1 77.9952 41.0968 101.806 -0.000120259 0.000176537 5.59948e-05
1182 2 81.327 39.0658 102.037 -9.79789e-05 0.000266893 0.000218745
1183 1 82.5695 42.452 102.687 3.8222e-05 -2.95747e-06 0.000186957
1187 1 82.1981 38.5879 99.4198 -7.00499e-05 0.00010585 -1.8226e-05
1228 2 78.4206 41.3067 98.8969 5.02854e-06 3.00545e-06 -6.42726e-05
1513 3 80.4525 40.9333 103.368 -5.54206e-05 -6.915e-05 -0.000118623
1231 2 78.793 47.3227 100.237 -0.000103242 7.81309e-05 4.65337e-05
1233 4 82.7175 45.7432 102.225 -3.02752e-05 -0.000131713 5.72234e-05
1232 1 81.9273 47.6408 99.7986 0.000168341 -0.000117786 -7.8881e-05
1563 1 79.4604 43.5822 103.125 0.000120903 -0.000292709 4.57753e-05
1234 1 78.7185 43.9397 100.067 1.64599e-06 0.000147645 -1.48581e-05
1226 3 77.4279 45.7129 101.634 0.000121763 0.000134315 -3.30288e-05
1239 3 84.1763 46.0586 99.3212 -0.000156548 -9.27756e-05 -7.13718e-05
1235 4 80.0774 46.3404 102.384 4.27666e-05 8.74771e-05 1.71716e-05
1230 4 81.826 44.3983 100.107 2.13645e-06 1.41248e-05 -6.62244e-05
1507 1 77.3798 38.7904 106.291 0.692802 -0.0440682 -0.797622
1509 1 78.2135 41.3384 104.766 -2.89003e-05 0.000307554 2.32237e-05
1511 1 79.7803 43.1898 109.054 0.700564 -0.0184938 -1.05483
1512 2 79.3795 40.5358 107.9 0.544659 -0.0641543 -0.210822
1515 3 80.2886 39.4952 105.643 -0.000151703 7.75809e-05 -8.12829e-05
1516 1 82.7775 39.539 104.357 3.87785e-05 4.88962e-05 0.000176411
1517 1 81.4791 42.0166 105.812 -8.9776e-05 -8.39932e-05 0.00013325
1777 2 82.1203 41.8015 108.614 0.000114322 -0.000107883 0.000106312
1518 1 84.0824 40.1688 107.227 1.73831e-05 8.06396e-05 -0.000131461
1567 4 80.4872 47.7911 105.835 -0.115034 0.0381798 -0.38846
1568 5 82.3551 47.4965 109.026 0.798521 -0.590199 -1.03167
1572 1 83.9323 44.5418 104.508 -0.000108594 5.47251e-05 -5.83214e-05
1565 3 82.9936 47.0667 106.153 4.43426e-05 -6.52509e-05 1.72095e-05
1559 2 79.2056 43.6804 106.037 2.43306e-05 7.68361e-05 -0.000212971
1561 1 77.6384 45.7883 104.264 0.520478 -1.05041 0.378747
1562 1 79.5329 45.9198 107.703 0.134917 -0.852474 -0.0846993
1564 1 82.0494 44.6985 107.204 -0.00010061 0.00015982 1.51161e-05
1566 3 81.1397 45.1791 104.703 -8.38058e-06 0.000291739 4.62428e-05
1774 5 80.5317 40.8216 111.088 0.208109 0.190487 -0.562212
1775 1 82.2712 38.428 112.395 0.442874 0.552998 -0.752467
1778 1 83.4468 41.0662 113.744 0.399388 -0.804497 -0.51646
1776 3 83.0065 41.1889 111.068 5.46608e-05 9.47901e-05 -4.61506e-05
1514 1 82.1049 39.0377 109.284 -4.02543e-05 -6.79178e-05 6.3215e-05
1520 2 84.0867 43.0294 109.707 -8.88227e-05 1.66125e-05 0.000164849
1817 2 82.2127 44.7776 109.824 -0.214848 -0.0460547 0.21992
1816 1 82.2821 43.4918 112.258 0.758055 -0.809049 -0.936888
102 1 81.8678 48.3047 78.5009 1.46871 -0.0948251 -0.120064
103 2 81.5063 50.0154 80.6378 0.305668 0.00355548 0.391012
298 2 80.8816 49.131 86.0106 4.94863e-05 0.000113417 6.80012e-05
304 1 81.7068 51.7656 82.9803 1.07787 -0.118583 -0.281836
297 1 78.7864 50.2338 81.3264 1.2257 0.954135 -0.428236
300 1 79.2866 51.6468 84.2395 -0.126092 -0.520095 1.12778
305 1 84.2193 51.1033 81.6072 0.367775 -0.897509 1.66908
307 3 84.1146 53.0581 84.7635 0.577983 -0.0110054 -0.298901
303 1 80.5291 48.8936 83.2975 -9.98318e-06 0.000106434 -8.23985e-05
302 1 83.1286 50.5176 85.2776 5.16815e-05 3.44671e-05 -3.55979e-05
301 1 78.1726 49.3266 86.0536 -0.0001324 2.02544e-05 5.0021e-05
325 3 79.3008 53.8008 86.3111 0.286945 -0.983404 0.287432
326 1 82.0804 53.3953 86.1298 -0.86915 -0.234385 0.748144
589 3 82.5038 49.603 87.9069 -6.00045e-05 4.30727e-05 -6.24177e-07