ITEM: TIMESTEP
91
ITEM: NUMBER OF ATOMS
1985
ITEM: BOX BOUNDS ss ss ss
3.7518755035558740e+01 7.7535367199398280e+01
4.4477326939999998e+01 8.3216473059999998e+01
6.9826024989257988e+01 1.1038342994779435e+02
ITEM: ATOMS id type x y z fx fy fz
1 1 49.7913 52.7271 74.7508 0.317429 0.107893 -0.181619
2 2 52.1088 54.0843 74.37 0.317533 -0.062515 -0.106695
3 4 52.7049 51.4005 74.5505 0.297598 -0.0197732 -0.399245
4 1 57.6802 53.5519 74.4157 0.683002 0.297226 -0.15524
5 5 49.1349 58.4655 71.9763 0.211359 -0.0503094 0.260093
6 2 47.9602 56.7258 74.0295 0.177764 0.0344818 -0.0866215
7 1 52.3017 58.0486 71.987 0.294946 0.0247464 0.0318141
8 1 53.6327 56.2713 74.1042 -0.489523 -0.0700384 -0.343179
9 1 50.4718 56.1436 73.2254 0.0192892 -0.196285 0.00627658
10 2 55.7462 55.1624 72.9937 0.527492 -0.280546 -0.199149
11 1 58.3701 56.4421 73.7069 0.184718 -0.00674411 0.0698564
12 1 55.7214 58.0627 72.9668 0.332843 -0.00180373 -0.0835017
13 1 61.1526 55.1154 74.2104 0.207567 -0.274623 -0.341579
14 4 63.1497 57.8303 73.7238 0.237146 -0.0457666 -0.11685
15 2 60.3885 57.8025 72.4926 0.451239 -0.00804051 -0.248012
16 1 44.3212 61.9164 74.3772 -0.101619 -0.140073 -0.613552
17 1 48.6113 61.24 72.6994 0.125833 0.0837433 0.143717
18 1 46.3893 59.8082 74.1539 0.347115 -0.286196 0.0773555
19 1 46.6775 63.2723 73.6471 0.192382 0.166716 -0.036462
20 2 51.0698 59.9035 73.3958 -0.000617348 -0.000205647 -0.000553425
21 1 54.014 60.4507 71.5287 0.227061 0.0363612 -0.163754
22 1 50.9829 60.7106 70.9368 0.505341 -0.115594 -0.465462
23 1 52.9614 63.279 70.8197 0.554508 0.0693806 0.165681
24 3 50.6043 62.9987 72.132 -0.0164396 0.0255691 0.123167
25 2 53.7201 59.3845 74.0699 0.000156634 -8.62378e-05 -3.28358e-05
26 4 52.608 61.8727 73.4455 -3.47066e-05 -0.000346185 -0.000459961
27 1 54.5493 63.8315 73.3405 -0.000145341 -0.000294503 -0.000700448
28 3 56.768 60.0937 71.4987 0.20564 0.15327 -0.00318546
29 1 55.9365 61.2377 73.8633 -0.000823224 -0.000222243 0.000327875
30 3 58.2251 62.0348 72.5407 -0.305625 0.254409 0.0634516
31 2 55.9105 62.6245 71.3947 0.410338 -0.210437 -0.191382
32 4 59.7255 60.4227 71.3738 0.539811 0.0373166 -0.492369
33 1 58.5132 59.4665 73.5891 0.000267861 2.88457e-05 0.000203849
34 2 57.1432 63.6347 74.2916 0.000291742 -0.000320642 -0.000652177
35 1 61.5225 60.3157 73.9056 0.0499982 -0.0992205 -0.157302
36 1 60.9079 63.0679 72.5123 0.309805 0.071279 -0.156718
37 1 63.7782 62.1568 73.1026 0.146621 0.134756 0.279469
38 1 45.1919 65.8162 74.7414 -0.23861 0.077807 -0.0329969
39 1 49.7377 67.0394 71.8453 -0.294032 -0.0599405 -0.0641412
40 2 48.882 64.5618 72.9343 0.251914 0.120511 -0.456771
41 2 47.2803 66.5242 73.3321 0.67205 0.190311 -0.0867409
42 1 49.7494 67.3984 74.661 -0.000299903 0.000147326 0.000130364
43 3 51.1865 65.1713 70.9642 -0.185027 -0.310523 0.0862558
44 3 53.122 65.9092 69.8305 0.754309 -0.132935 -0.257866
45 3 52.023 67.7591 70.8629 0.458556 0.189732 0.0265526
46 3 53.3987 65.9621 72.2584 -3.69729e-05 0.000317873 -0.000142286
47 1 51.4658 65.0374 73.6556 0.000148825 0.000101264 -0.000211924
48 1 52.4341 68.1294 73.5063 -8.80461e-05 0.000188645 0.000489494
49 1 54.7243 68.1836 71.6513 0.489954 0.108505 -0.0399286
50 1 55.5671 65.2881 70.8975 0.254879 0.128974 -0.3434
51 1 58.3982 64.7266 72.3116 0.0936391 0.124246 -0.292466
52 2 57.8671 67.3454 71.5337 0.182467 -0.161093 -0.111802
53 1 56.1215 66.2022 73.6466 0.000322242 -0.000151243 -0.000192598
54 1 58.7439 66.9221 74.7285 0.000113184 -0.000113487 -0.000427478
55 2 57.0182 68.7016 73.3252 0.000239257 0.000421889 -3.42181e-05
56 1 60.836 66.6548 72.6997 0.279949 -0.147513 0.285834
57 1 63.2112 65.053 74.0201 0.274941 0.20906 -0.395895
58 2 60.2067 64.6338 74.556 0.00134884 6.42384e-05 -0.000126544
59 1 63.1448 68.1417 74.4546 0.12724 -0.0280891 0.098927
60 1 45.7875 68.8131 73.8819 0.32598 0.138411 -0.197928
61 2 48.2073 69.03 72.6741 0.0285098 0.124524 -0.228804
62 1 48.8496 71.6684 73.3493 0.21149 0.317834 -0.152531
63 1 46.1587 71.8593 74.3382 0.152197 -0.0864115 0.101714
64 1 50.7599 69.9618 71.8582 0.28902 -0.140199 -0.224152
65 1 51.8317 72.4187 73.3994 0.322641 0.093193 0.227355
66 3 50.6501 69.987 74.4626 0.000544058 0.000696229 -0.000143441
67 4 55.3627 68.7457 75.0519 0.00021168 5.27643e-06 -0.000652503
68 1 54.5798 70.991 72.998 0.126248 0.0463379 -0.0279839
69 1 59.685 69.4177 73.1137 0.246711 -0.0809047 -0.54697
70 3 57.2539 70.8702 72.4002 0.219859 0.132445 -0.0410609
71 1 57.1585 73.013 73.9976 0.141707 0.0337918 0.0210471
72 2 59.6836 72.0782 73.9532 0.217568 0.134379 -0.00452199
73 1 62.2211 70.969 74.3355 0.24902 -0.279246 -0.257717
74 1 49.5285 74.1618 74.7918 0.510229 0.0566084 -0.366336
75 1 54.4959 74.2046 73.9614 0.622038 -0.121695 -0.27326
76 1 52.773 48.6828 78.5143 0.486429 -0.0170018 0.0598678
77 5 57.1505 49.1922 78.2908 0.420031 -0.172344 -0.333966
78 1 45.225 53.2802 77.4262 0.0840066 -0.370948 -0.152187
79 1 47.7617 51.5047 76.3912 0.155453 -0.0797258 0.26469
80 3 49.9843 52.9123 77.4779 -0.000354613 0.000252884 -7.69031e-05
81 1 47.8419 53.4816 78.8043 0.000158772 -0.000605824 0.000345584
82 1 46.4669 50.8033 78.9329 0.186873 -0.343861 0.0374659
83 1 49.4678 50.5453 78.9552 -0.239984 0.438417 0.204044
84 1 50.9908 50.469 76.5818 0.15112 -0.231016 -0.27776
85 2 54.1221 50.478 76.9487 0.166883 0.223986 -0.141838
86 1 52.5947 52.9761 76.8898 -0.000346438 8.3083e-05 0.000181449
87 4 55.3955 52.4553 78.1232 0.00016574 -0.000305455 5.65678e-05
88 1 55.0133 50.2569 79.8302 4.53971e-05 6.23591e-05 6.54952e-05
89 1 52.321 51.426 79.3687 -9.21275e-05 5.97881e-05 -0.000104764
90 1 54.8823 53.5008 75.2828 -0.0246735 -0.264291 -0.184125
91 3 60.1976 52.7768 75.2362 -0.129082 -0.0323053 0.0696137
92 2 57.3839 54.0841 77.2713 -0.000124512 -0.00013544 -0.000319731
93 1 57.1452 51.4732 76.3381 0.37835 -0.14067 -0.0780577
94 1 60.1088 53.1443 77.8507 -2.76374e-05 0.000291403 -6.71524e-05
95 4 59.7797 50.3139 76.8236 0.0114657 0.248829 0.167712
96 5 58.0686 51.7024 79.1899 -0.00011118 -0.000255122 0.00019774
97 1 60.2833 49.8053 79.7387 0.505136 -0.0518555 -0.214068
98 3 62.0638 51.258 78.057 0.134501 -0.0502738 0.0517303
99 2 64.4709 51.7349 79.0106 0.0283244 0.175421 -0.00109535
100 1 62.8286 53.1009 76.1683 0.00313175 0.11381 -0.1209
101 2 62.7668 53.9988 78.623 -0.000235621 0.000189631 0.000230201
102 1 65.4214 53.991 77.9813 0.298668 0.129818 -0.318755
103 4 43.3657 56.7438 77.0926 -0.150416 -0.202382 0.162462
104 4 45.3421 58.8106 78.011 -0.000282492 -0.000146662 0.000205901
105 1 43.845 54.9106 79.3215 0.0990864 0.419801 -0.164469
106 2 44.4247 57.6376 79.8552 -4.68564e-05 0.000350345 -3.49192e-06
107 1 45.8238 57.2312 75.5492 0.225472 -0.13239 0.244605
108 1 50.2895 55.334 75.9936 -3.14816e-05 0.000104209 -0.000150467
109 1 47.4132 54.5466 75.9044 0.404674 0.235612 -0.24581
110 3 49.1276 55.7628 78.3437 -9.75611e-05 -9.96648e-05 -0.000187509
111 3 48.337 57.1202 76.577 0.000315264 -0.000364261 0.000910551
112 1 46.427 56.1651 78.3962 7.65897e-06 0.000503283 0.000405039
113 1 48.5244 58.2676 79.222 0.000253902 -0.000285281 -0.000465383
114 3 50.8967 57.088 79.904 -0.00039237 -0.000420287 3.14731e-05
115 3 51.6699 57.831 74.8362 0.000274258 0.000309994 -0.000361736
116 2 54.8747 54.9806 77.7911 -5.68513e-05 -6.82591e-05 0.000429495
117 1 51.4985 54.7544 78.8311 -0.000307547 -0.000236962 0.000153797
118 2 52.8742 55.681 76.5755 -0.000453079 9.27879e-05 -4.4349e-05
119 1 50.9845 57.8058 77.4029 -0.000137962 -0.00018899 -9.47852e-05
120 1 54.0526 58.0916 76.4535 -0.000305095 -0.000432867 0.000220481
121 5 53.4365 56.8864 79.0103 -0.000236395 5.93672e-05 -0.000208022
122 3 59.1873 55.0709 76.0039 1.57739e-05 0.000169604 -0.000161932
123 1 56.2717 56.0595 75.6894 0.000185232 5.49595e-05 -9.24064e-05
124 2 58.62 57.3899 76.4688 -0.000567858 -5.41736e-05 4.76464e-06
125 1 59.1362 56.0035 78.6704 0.000404812 -0.000330838 -0.00035541
126 1 56.9952 54.3846 79.9086 0.00058214 0.000199394 1.83085e-06
127 1 56.3829 57.1774 78.432 0.000118394 -0.000207262 -0.000210668
128 5 60.8028 57.7509 75.1202 0.000202708 -0.000235956 -0.000413216
129 1 61.0148 58.3157 78.0584 0.000455594 -0.000387166 0.000360788
130 3 63.0529 58.3078 76.4728 -8.32279e-05 0.000239377 -6.54507e-05
131 1 61.5928 55.6973 77.0264 -0.000106205 -0.000414405 1.42419e-05
132 1 64.2798 56.0874 75.9068 0.633196 -0.314876 -0.0415739
133 1 63.9028 56.7403 78.8489 9.05064e-05 0.000189469 -7.85772e-05
134 3 65.2307 58.753 77.6132 0.000303661 0.000486124 0.00012227
135 3 69.3053 57.8433 77.8462 0.0556787 0.180525 -0.0280851
136 1 67.0374 58.5086 75.8234 0.30519 0.112805 -0.3982
137 1 66.8615 56.5485 77.8811 0.101539 -0.0324774 0.194068
138 1 68.4186 54.3713 79.6192 -0.0535398 0.459674 0.150498
139 1 39.7419 61.172 79.7614 -0.108427 -0.581383 0.358487
140 1 43.7034 59.2906 75.6788 -0.31158 -0.193355 -0.24143
141 1 42.4146 59.4543 78.4773 -0.26307 0.101074 0.0630071
142 2 43.2094 61.6893 76.6759 0.193993 -0.0568124 0.381744
143 3 45.6002 60.8959 76.587 0.000190448 -0.000189451 -0.000633959
144 3 41.3149 62.0027 77.9536 -0.0138075 0.254965 -0.197498
145 1 44.5874 61.3377 79.1211 -0.000355666 -0.000202214 -0.000127283
146 1 45.9254 63.4396 76.6473 0.000625821 -0.000159339 -0.000359785
147 1 49.2048 59.0201 74.9607 -0.000191621 -6.55171e-05 9.38241e-05
148 2 47.4268 59.3546 76.9325 -0.000285299 0.000198241 -0.000144619
149 1 49.7329 60.5582 77.6772 -8.78756e-05 0.000166166 -0.000328072
150 2 47.827 61.6389 75.7243 2.96772e-05 -0.000663052 -0.000360129
151 2 49.1647 63.2729 77.5648 -0.000163183 -7.06055e-05 -0.000501657
152 1 50.1757 62.5272 74.9223 -0.000206919 0.000518652 -0.000251596
153 1 47.3584 61.7382 78.7274 0.00082517 -0.000193521 -0.000201697
154 1 51.9802 60.3167 75.8467 0.000431796 -0.000432106 -8.98438e-05
155 3 55.6701 59.9009 78.0121 0.000441447 0.000222525 -0.000266656
156 1 53.0486 59.8913 78.5908 -0.000356428 8.71314e-05 -0.000193633
157 3 54.5346 60.909 76.077 -4.5794e-05 5.73999e-06 -0.000714799
158 1 51.8227 62.6519 77.8006 -0.000604254 8.55671e-05 -0.00030732
159 1 54.7026 62.4711 78.2555 -0.000397218 -0.000205374 -0.000537551
160 4 53.2329 63.2484 75.6144 0.000248962 0.00029667 0.000211825
161 1 59.3925 62.1498 74.9499 -3.49963e-05 0.000261326 0.0004059
162 1 56.7064 59.0795 75.7632 5.1586e-05 0.00029029 -0.000359266
163 2 59.5004 59.6949 76.0694 -0.000321203 0.000180627 0.000639606
164 1 57.1424 61.9275 76.7662 -7.36213e-05 0.000878995 -0.000224093
165 3 59.6288 61.4239 77.6202 -0.000141459 0.000295336 -0.000166705
166 1 58.2924 59.4326 78.5667 -7.30984e-05 6.27739e-05 -5.97091e-05
167 2 58.5667 62.9904 78.9697 -0.0002258 -0.00021678 0.000295487
168 1 61.0608 60.8047 79.7069 -3.10448e-06 0.000373057 -0.000565537
169 2 62.1869 62.8858 75.127 0.000788175 -0.000241026 0.00024604
170 1 64.4731 60.1896 75.2989 0.536554 0.142892 -0.537024
171 1 62.0771 60.9094 76.8335 -0.00032758 -0.000617261 -0.000237124
172 1 64.9456 61.5796 77.8784 0.000773448 0.000823887 -0.000207809
173 2 63.3615 59.5561 78.7831 3.80523e-05 -0.000339502 4.66332e-05
174 3 62.6662 62.8095 78.9722 -0.000152025 0.000318947 -0.000241872
175 2 64.8552 63.7787 79.5444 -5.14014e-05 -0.000755953 0.000311688
176 1 60.7513 63.7015 77.2944 -0.000188924 0.000288699 -0.000360352
177 1 69.7026 60.6333 77.2753 0.205952 0.0470553 -0.225423
178 1 65.8519 63.3153 75.2479 0.0497208 -0.135571 -0.0353608
179 1 67.6549 62.9933 78.049 -0.000147854 -0.00070363 4.23476e-06
180 3 67.0386 61.0823 76.2464 0.280847 0.00827626 -0.102649
181 1 67.4891 59.7827 78.6817 0.00010586 0.00052035 6.00577e-05
182 3 69.5372 61.6346 79.8019 -0.000407086 6.48828e-05 0.000117029
183 1 70.77 59.1931 79.9197 0.118168 0.0194029 -0.210434
184 3 70.3236 63.1835 77.9796 0.148113 -0.0441739 0.211098
185 3 40.1 68.5648 79.341 0.211963 -0.0150235 -0.257827
186 2 40.7964 64.576 77.1149 -0.148082 -0.0720859 0.390908
187 3 41.2308 66.3686 79.0069 0.476091 -0.0845798 0.258864
188 1 41.0942 63.8893 79.8492 0.0138752 0.105303 0.386053
189 1 42.8664 64.2329 75.3707 -0.191566 -0.059999 -0.195176
190 2 45.8087 63.9203 79.6753 7.82907e-05 0.000118539 -0.000338459
191 1 43.3833 63.8876 78.1514 9.29672e-05 0.000565689 8.90863e-05
192 2 45.1018 65.8428 77.4415 0.000221916 0.000587447 8.24591e-06
193 1 42.6204 66.8314 76.9321 0.258255 -0.0577595 -0.434256
194 3 44.6491 68.2231 76.1233 -0.146714 0.256065 0.399608
195 3 42.5456 68.4742 78.9763 0.291446 -0.0189564 0.0046442
196 1 45.2824 68.082 78.7533 -0.000296775 0.000231701 -0.000138809
197 1 48.3843 64.8647 75.5377 4.45004e-05 -0.000321049 -7.76212e-05
198 1 47.6005 65.3956 78.404 0.000211188 0.000254027 0.000227419
199 2 49.7039 66.8177 77.5143 -4.65198e-05 0.000786932 0.000311691
200 1 47.2133 67.4955 76.257 5.45399e-05 0.000998925 9.84031e-06
201 4 50.5474 64.8088 79.2017 0.000109729 -0.000210182 -0.000169137
202 1 48.0997 68.4175 79.1177 -0.000146767 0.00112429 -0.000445126
203 5 53.7568 66.2084 75.2092 0.000243266 0.000618593 -0.000152597
204 4 51.2987 65.1777 76.4698 9.66037e-06 -0.000397812 -5.99272e-05
205 5 53.9439 65.2526 77.789 -0.000544441 0.000203243 -0.00019192
206 3 51.9605 67.8857 76.2802 0.000434735 -0.000270939 5.16029e-05
207 1 54.3495 68.3376 77.6963 -0.000402014 0.000450211 0.000527401
208 3 53.3561 63.9221 79.9429 -0.00092303 0.000347937 0.000571526
209 1 52.0663 67.0361 78.911 -0.000112906 -0.000598588 0.000644699
210 1 56.5875 64.6831 79.139 0.00019573 -0.000562843 -0.00108793
211 3 55.6005 64.0614 76.1025 1.30149e-05 0.000685047 0.000133473
212 2 58.2699 64.4524 76.2947 0.000597712 0.000770477 -0.00155467
213 1 56.4815 66.5181 76.684 9.67348e-05 0.00020175 -0.000840968
214 1 59.2008 66.0676 78.2127 -0.000216546 -0.000322791 -0.000199395
215 1 56.9693 68.151 79.3637 -5.59498e-05 -0.000117808 -0.000359779
216 2 58.4708 68.3912 76.937 -0.000399069 0.000264536 3.70439e-06
217 1 63.7879 64.3143 76.9488 0.000161332 0.000184217 -0.000212453
218 3 63.2686 68.3341 79.4392 0.000520917 0.000704178 -0.000148904
219 1 61.4543 66.3521 76.0951 0.000544636 0.000900814 0.000952368
220 1 62.3849 65.7392 79.1148 0.000566976 0.000904251 -0.000115187
221 2 63.8362 67.2001 77.2572 0.000498949 -0.000298752 0.000652515
222 1 60.996 68.4323 78.1535 -0.000230587 -4.46367e-06 0.000980738
223 1 65.7487 66.4825 75.5348 -0.00454213 -0.0861864 -0.101522
224 3 68.0181 65.0938 76.4522 0.0374478 0.109462 -0.23506
225 1 66.2467 65.6827 78.3809 0.00042712 -2.78519e-05 0.000205306
226 2 69.5199 65.4348 78.73 -0.0578319 0.313724 -0.423153
227 1 68.3425 67.7622 77.4134 -0.0200157 0.0337785 0.486785
228 3 70.4962 67.7379 79.2997 -0.410365 -0.0426886 -0.0768085
229 1 43.6057 70.4303 77.7637 -0.160541 0.220514 0.140364
230 4 43.6955 70.4174 74.9187 -0.262969 0.00820696 -0.00923438
231 2 44.7924 72.5924 76.5708 0.0141103 0.185994 0.265746
232 3 46.4395 70.5016 79.5483 -0.00142928 0.000882126 -0.000398332
233 1 44.0938 72.6826 79.7288 -0.0402317 -0.0850761 0.0179349
234 2 48.1242 69.7204 74.9585 -2.38557e-06 -0.000108524 0.000174287
235 1 49.8053 69.3849 76.8997 -4.78859e-05 -0.000184987 0.000323307
236 1 46.4373 70.296 76.9139 0.000196299 0.000249335 -0.000397553
237 1 46.8241 72.8666 78.544 -3.74353e-05 -3.58904e-05 -0.000196742
238 3 48.2578 71.9965 76.0952 0.000650526 9.8538e-05 3.34647e-05
239 2 48.9304 71.2487 78.5221 -0.000212703 -0.000158864 -0.000140612
240 1 50.7275 69.3875 79.7341 -0.00082214 -0.000234919 -0.000889059
241 1 53.1338 70.2619 75.4366 0.000328389 -4.01145e-05 9.30478e-06
242 2 53.2166 72.9499 75.7641 9.11639e-05 -0.000194965 -5.39583e-05
243 3 52.2844 70.0324 77.8376 -0.000132523 -0.000179679 0.000317775
244 1 50.8809 71.9785 76.3025 -0.000290059 0.000314314 -3.00398e-05
245 1 54.313 71.8497 77.9453 -0.000383601 2.36937e-05 5.13565e-05
246 3 55.4211 71.724 75.48 5.4157e-05 0.000563258 0.000379463
247 1 51.6125 72.2815 79.2483 -0.000475039 -0.000254159 0.000706441
248 1 57.9303 70.3855 75.2373 -0.000209082 -0.000346346 0.000148053
249 3 56.3012 70.9474 79.4858 -0.000620681 -0.000175033 -0.000423835
250 1 58.7502 70.4314 78.5895 0.000118489 -0.000455467 3.64198e-05
251 3 56.3043 70.0172 77.2602 -0.000741416 -0.000353627 -0.000658315
252 1 57.3406 72.6775 77.1455 0.000107357 8.79932e-05 -0.000199269
253 1 60.52 71.467 76.5933 0.000590584 0.00026315 0.000185635
254 2 60.6462 68.9244 75.5285 -0.000445309 0.000540991 0.000500891
255 4 61.4997 70.9249 79.601 0.00078866 0.000243438 0.000149974
256 1 63.2958 69.9597 77.0849 6.26565e-05 -0.000100315 -0.000467762
257 4 64.5811 72.2601 75.9186 -0.0909095 -0.00928286 -0.0604435
258 4 63.0204 72.8258 78.0845 0.000457886 6.06707e-05 -0.0001786
259 4 64.1345 70.8258 80.221 7.41035e-05 2.42861e-05 -8.93945e-05
260 1 65.7889 68.7756 78.6008 0.000694908 -4.79461e-05 -0.000387422
261 4 65.9651 71.9239 78.5454 0.0866964 -0.0208878 0.0662369
262 4 65.7977 69.4746 75.6253 0.0508007 -0.0849385 0.112175
263 2 67.874 70.5988 77.4145 0.109329 -0.268755 0.0326978
264 5 68.61 72.9834 79.4099 0.22499 -0.603935 0.168151
265 2 70.3669 70.1901 78.7008 0.532258 0.157275 -0.309075
266 4 44.9513 75.0593 77.9369 -0.213715 0.188805 0.196157
267 1 46.9841 74.3726 76.0627 -0.16348 0.172915 -0.179924
268 4 49.4473 73.7976 77.787 0.000418473 -4.17244e-05 -0.000738064
269 2 48.0048 75.7564 78.6068 -0.109566 0.0890613 0.0879375
270 1 50.0028 76.3455 76.8624 0.228261 0.300141 0.141857
271 1 50.1993 77.9506 79.3455 0.63284 0.0860771 -0.40254
272 5 51.226 75.3039 79.7799 1.71414e-05 -0.000705333 -0.000351584
273 1 52.1572 75.5363 75.0037 0.168538 -0.170764 0.099715
274 2 52.0466 74.3474 77.4447 -0.000284109 -0.000248941 0.000380538
275 1 54.8212 74.6735 77.137 -0.000163406 0.000164342 0.000151451
276 1 52.996 77.0126 77.6914 -0.132481 -0.00468021 0.218685
277 3 54.5596 76.8008 75.4503 0.21847 -0.100895 -0.0333446
278 2 53.6129 74.1326 79.5852 4.71571e-05 -0.000349618 0.000137381
279 3 56.0862 73.5196 79.2815 -0.000758778 -0.000395815 0.000461933
280 1 55.3727 76.1071 79.8534 0.000121071 -0.000202508 -0.000370844
281 1 60.359 73.8536 78.4236 0.000121788 0.000294676 0.000792702
282 5 56.9761 75.4267 75.5627 0.563437 0.0545916 -0.200181
283 1 59.453 76.5804 76.851 0.288147 0.0368841 -0.292364
284 3 60.0606 76.3736 79.4155 0.00012087 -0.000187868 0.000302941
285 5 57.8384 75.207 78.6936 0.000520406 0.000274056 0.000523671
286 3 59.2879 73.9223 75.8787 -0.162402 0.146163 -0.0925018
287 1 56.4884 77.5785 77.5202 0.199709 -0.23434 -0.31013
288 4 61.7824 73.8002 75.2394 0.194245 0.0560287 0.0680942
289 4 65.2074 74.7318 77.9578 -0.108565 0.0275579 0.056676
290 1 62.3368 75.8013 77.4009 0.184448 0.209075 -0.200541
291 2 64.7429 76.9117 79.5308 0.190806 -0.020996 -0.293764
292 1 61.6537 78.3419 78.9009 0.155186 -0.123087 0.38183
293 1 54.958 79.0529 79.5153 0.172214 -0.138103 -0.189626
294 3 58.9291 78.6707 78.5666 0.140724 0.0835959 -0.270081
295 1 50.0385 47.953 82.9272 0.293969 -0.127605 0.598513
296 4 50.7751 47.9379 80.2297 -0.138539 -0.16586 -0.0627736
297 2 48.1639 49.0408 80.6556 -0.299525 -0.310002 0.187727
298 2 55.7643 47.576 80.025 0.22419 -0.0654465 0.071235
299 2 54.6558 45.7594 82.73 0.0320637 -0.0434003 0.0163468
300 3 52.6324 47.3955 82.9575 -0.201725 -0.199913 0.404689
301 3 53.4683 47.0821 80.7071 -0.10566 0.0897159 -0.112264
302 1 55.1319 48.3618 82.6909 9.88356e-06 -8.46438e-05 0.000189781
303 4 56.6022 45.4977 84.8264 0.102931 -0.161863 0.364319
304 1 57.4495 46.5492 82.3303 -0.0120224 -0.0845151 0.176712
305 1 60.0527 48.3415 82.6993 -0.821502 0.265975 0.0432362
306 2 57.5434 48.4433 84.2788 0.000138076 -0.000231569 -0.000333299
307 1 59.4984 46.6082 84.9573 0.366498 0.0987466 0.180317
308 5 58.8277 47.3176 80.0393 0.358844 -0.0985999 -0.547751
309 3 61.7687 47.6698 80.9172 0.166459 -0.171978 -0.237083
310 3 62.5565 47.265 83.3818 -0.243766 -0.159878 0.0835282
311 1 64.8049 48.3629 82.5048 0.0391116 -0.298602 -0.403633
312 4 41.2967 53.9609 84.1564 0.0190104 -0.1693 0.128524
313 2 44.7205 52.364 80.0841 -0.070868 0.228154 0.301277
314 1 45.9347 49.8011 84.3496 0.138356 -0.0694642 -0.312485
315 1 45.3385 52.5471 82.8066 0.0859845 0.204275 -0.121244
316 1 42.7539 53.8004 81.6294 0.176762 -0.338315 0.518111
317 2 45.8616 50.1936 81.5285 -0.01337 -0.170722 0.17516
318 2 43.6401 51.5926 84.5122 -0.253804 -0.287233 0.511425
319 2 48.1821 49.9049 82.9239 0.219503 0.119601 -0.0345235
320 1 47.9162 52.1091 81.3751 0.00040341 0.000625213 -0.00018523
321 2 50.3174 52.9112 80.318 0.000253675 -0.000159861 0.000277027
322 1 50.2863 53.1631 83.1452 0.000758857 -0.000114082 0.000205914
323 1 47.8289 51.9867 84.5206 4.86283e-05 -0.000210274 3.81538e-05
324 1 50.6764 50.5309 81.7796 -0.000467672 9.86607e-05 -0.000703557
325 1 50.4518 50.5421 84.7534 -5.11103e-05 0.00027314 0.00108634
326 3 52.955 49.405 81.3042 0.000327609 -0.000402408 -0.00041598
327 1 54.6381 51.1698 82.635 0.000236253 -9.69145e-05 0.00117157
328 1 54.0438 53.7491 80.0786 -0.00021742 -0.000184421 6.03768e-05
329 3 52.5117 52.5831 81.8971 0.000362354 -0.000837647 -0.000229155
330 2 52.8267 49.6069 83.9207 -0.000802708 0.00044653 -0.000586342
331 5 52.9589 52.3066 84.5928 0.000364557 0.000739849 0.000889294
332 1 54.765 54.1536 82.9222 -0.000185896 0.000254049 -0.000441808
333 3 59.6017 53.8164 80.3796 0.000631342 -0.000444496 0.000159725
334 2 56.6233 52.178 81.3138 -0.000459498 -0.000262293 0.000551602
335 3 60.4254 50.4361 84.2039 0.000592608 -4.64181e-05 0.000298101
336 1 57.527 49.5176 81.319 6.94122e-05 -0.000184175 7.95405e-05
337 1 59.6378 51.6254 81.919 1.38898e-05 -0.000252413 0.000183116
338 1 57.6574 51.0928 83.8662 0.000183794 -0.000441721 2.8724e-05
339 4 57.7913 53.8493 82.9031 -0.000185145 -0.000193079 0.000226956
340 1 63.3695 49.5541 79.9919 0.221005 0.115037 0.161321
341 2 62.3312 49.7977 82.4787 0.000111998 0.000401594 0.000244753
342 1 64.3074 50.1057 84.6358 9.4486e-07 -0.000188887 0.00028297
343 1 62.0326 52.3693 80.5217 0.00027797 0.000232289 0.000286933
344 1 64.6069 51.6988 81.9434 4.16069e-05 0.000158856 7.12328e-05
345 1 62.2394 52.1977 83.6134 0.000415534 -0.000119718 -0.000103052
346 1 65.1055 52.9532 84.6553 -0.000306645 -6.36622e-05 0.000387676
347 4 64.3837 54.2526 80.5545 -6.14247e-05 0.000662923 -0.000112327
348 1 66.5888 50.0048 80.9476 0.460991 0.0910362 -0.323608
349 3 66.6136 52.6296 80.3536 -0.152108 -0.111969 -0.230285
350 2 66.7901 50.8456 83.6123 -0.288437 0.10695 -0.0271057
351 1 68.728 52.023 82.2674 -0.00186602 0.28738 -0.435701
352 2 70.4597 53.2846 84.4024 0.294885 -0.132691 -0.238186
353 3 67.9067 53.0602 84.6252 5.62784e-05 -0.000230808 0.000180082
354 1 69.4304 50.6295 85.0219 0.290004 0.18305 -0.293441
355 1 66.646 54.2199 82.5005 -0.000251526 3.4034e-05 0.000109505
356 3 39.8382 58.6065 83.2888 -0.658299 -0.392256 0.601026
357 5 41.5041 56.3704 82.7255 -0.173527 0.0721964 -0.0458866
358 1 41.8356 56.9478 79.9755 -0.281792 -0.164724 -0.12662
359 4 44.0815 54.7226 84.1008 -0.000176397 -0.000250358 -0.000319068
360 4 44.1143 56.3846 82.0357 -2.9682e-05 -0.000177612 -5.09723e-05
361 1 45.5943 57.1125 84.409 -0.000566397 -1.45905e-05 -6.69207e-05
362 1 42.7951 58.5202 84.2972 2.98598e-07 0.000492804 -0.000416396
363 2 46.1119 54.3798 80.7749 0.000130647 -0.000102999 0.000757702
364 1 47.4113 54.7535 83.2623 0.000399128 -0.00043934 0.000229392
365 1 49.1318 55.2558 80.9213 0.000495587 -0.000747825 0.000168573
366 1 46.7638 57.0305 81.3309 0.000265322 1.63522e-05 0.000132199
367 3 50.0695 55.7916 83.4252 7.61095e-05 -6.02175e-05 -0.000675262
368 1 49.8675 58.0689 82.1105 -0.000299485 3.85031e-05 2.37585e-05
369 3 48.2357 57.1505 83.9863 -0.000536501 0.000573769 -0.000114907
370 1 52.1442 55.4181 81.7526 -0.000136713 2.32702e-05 -0.000390525
371 1 55.3079 56.4405 81.1601 0.000289345 1.19554e-05 -0.000113695
372 1 52.7862 58.3468 81.3962 -0.000274789 -0.000136047 0.000189592
373 3 53.9496 56.6799 83.6298 0.000721164 0.000451929 -0.000405432
374 3 55.1409 58.9564 80.1136 -0.000381828 0.000355027 -0.000399174
375 1 52.3215 58.6738 84.2675 0.000583937 0.000678331 0.000280379
376 5 52.1742 54.9756 84.6311 -0.00014985 0.00110932 -3.98245e-05
377 4 60.5884 54.302 82.889 0.000194209 -0.000170015 -0.000112044
378 3 59.9743 58.2912 80.4313 0.00019122 0.000258351 0.00076835
379 1 58.8179 56.2483 81.6393 0.000107462 9.41977e-05 -0.000902419
380 4 57.5281 58.7145 81.239 -5.30056e-05 -0.00022696 -0.000245035
381 4 59.4394 56.2239 84.4915 -0.000745812 0.000553752 -0.000175867
382 1 60.414 58.6782 83.0618 0.000167505 0.00031729 0.000170123
383 4 56.8261 56.4859 83.7147 -0.000421011 -0.000111301 -0.000556871
384 1 61.6258 55.6833 80.4866 0.000262052 0.000482919 7.20131e-06
385 2 63.4594 54.4049 82.79 0.00015452 0.000269359 0.000308261
386 1 64.5758 56.7961 82.4657 -1.74344e-05 -2.72125e-05 -0.00038526
387 2 61.9339 56.496 83.177 -0.000280258 -0.000359701 0.000308745
388 1 62.5732 58.5099 81.0926 0.000104988 0.000317237 0.000314139
389 3 65.6772 58.7806 84.3027 0.000349093 0.000391759 0.000433941
390 2 65.588 55.5554 84.6441 -0.000769382 -0.000876125 -0.000136778
391 1 63.5745 57.5054 85.1834 -0.000137945 9.75873e-05 0.000274484
392 1 65.6405 58.6798 80.5232 0.000244345 0.000410581 -0.000186527
393 1 69.4863 55.0607 82.3824 -0.000877388 -0.480799 -0.0486246
394 2 66.2468 55.9368 80.4413 0.000282532 -0.000461948 0.000231511
395 1 67.5141 57.2848 83.0384 8.79276e-05 -1.71031e-05 -0.000159214
396 5 68.4284 57.3261 80.2675 0.000251437 -3.82517e-05 -9.51217e-05
397 1 70.7185 57.7845 84.8603 0.000543195 -3.63038e-05 -0.000531056
398 2 70.1883 57.7786 82.2894 0.000152708 0.000526658 0.000126738
399 1 71.0793 56.2023 80.2869 0.242372 0.207372 -0.268083
400 1 72.2858 55.8004 83.3243 -0.30698 0.0164116 -0.275438
401 1 72.8914 58.7147 82.6748 -0.147161 0.00407922 -0.17073
402 1 41.3522 59.4004 81.5402 0.35224 -0.00269101 -0.843793
403 1 38.9072 61.1916 82.6274 0.269591 -0.123363 0.128308
404 3 41.0503 62.5285 82.104 0.00031028 -5.80365e-05 -4.74425e-05
405 3 38.6821 63.3641 80.7532 -0.2999 0.146934 0.38922
406 2 41.3835 60.7473 83.8215 0.000643304 -0.000160501 -8.05569e-05
407 4 37.5232 61.634 84.9875 0.0585952 0.0867153 0.445927
408 1 44.2553 59.4985 81.7635 -4.77451e-05 0.00051823 0.000445425
409 2 42.3585 61.4807 80.3631 0.000221348 -6.67276e-05 0.000419283
410 3 43.7035 63.3858 80.7534 -0.000228603 0.000271563 6.10952e-05
411 1 43.4752 62.1111 83.013 -0.000400881 0.000366004 0.000260759
412 1 46.1489 62.0824 81.8102 -0.000108738 -0.000300254 -0.000274549
413 2 45.1503 60.2596 84.3283 7.99118e-05 2.62606e-05 -2.64361e-05
414 3 45.6938 62.9651 84.4169 0.000167931 0.000239975 0.000375586
415 2 50.8785 59.6541 79.9833 0.000131567 0.000331285 -0.000216937
416 2 46.4987 59.6386 80.2807 -0.000450023 -0.000376554 1.60889e-05
417 1 47.1564 59.3594 83.0214 -0.000946024 0.000427189 0.000154524
418 1 48.9005 60.8289 81.2758 -0.000153363 -0.000426763 -8.11038e-06
419 2 50.3094 63.3382 82.9755 -0.000573423 0.000513107 3.73608e-05
420 1 51.2254 62.3882 80.5647 0.000103758 0.000540574 -1.21689e-05
421 3 49.7714 59.4998 84.3056 0.000272444 0.000598995 -0.000320185
422 1 48.3737 61.7741 84.2548 7.82802e-06 7.39007e-05 0.000188062
423 1 51.4516 61.5455 85.012 0.000348644 0.000267276 -0.000418876
424 3 51.3876 60.5233 82.4946 -0.000506489 0.000465995 8.03532e-05
425 1 48.4694 63.7577 80.7996 -0.00114892 0.000299366 0.000723563
426 1 55.2927 58.9235 82.8763 0.000386287 -0.000396318 -0.000954035
427 1 53.8952 61.1622 81.1224 -0.000405013 0.000111953 -9.70657e-05
428 3 52.7081 62.7609 82.7748 -0.00047451 0.00083409 0.000125656
429 1 55.2097 63.8153 81.8983 -0.000144366 -0.0003564 -0.000646196
430 1 54.2133 61.1449 84.2799 0.000103052 0.000803725 -0.000127268
431 2 56.3705 61.4792 82.7525 7.06161e-05 0.000306937 -0.000313438
432 1 60.5881 63.7097 80.4799 0.000138977 8.63263e-05 0.000352282
433 5 57.8882 59.65 84.0256 2.41562e-05 0.000563736 -0.000770277
434 1 59.1073 61.1466 81.7544 -0.000593389 0.000370784 9.6349e-05
435 1 56.6836 61.4227 80.0768 -0.000794452 -0.000177992 -0.000260249
436 2 57.9071 63.5335 81.476 -0.00020119 0.000310944 -0.000216418
437 2 58.2082 62.4603 83.9442 -0.000519477 -0.000544082 7.33948e-05
438 1 60.5618 61.161 84.566 -0.000194094 -0.00028005 -0.000326639
439 1 63.5064 60.0636 83.4996 0.000853598 0.000240311 -0.000627797
440 2 61.7698 61.7204 82.2095 -9.46744e-05 -0.000230994 0.00015638
441 1 64.0337 61.2826 80.7794 0.000566358 -0.000300568 -0.000324038
442 3 65.1766 62.477 82.9522 -0.000456092 -4.73085e-05 0.000162767
443 1 63.1623 62.9057 84.6721 -0.000311065 0.000118771 0.000918078
444 3 66.1263 60.2957 82.6019 7.51357e-05 -3.94194e-05 -1.98435e-05
445 3 70.2031 62.1773 82.1951 7.57414e-05 0.0006866 -6.59605e-05
446 1 68.5327 59.938 81.6471 0.000699399 0.000218457 3.28327e-05
447 4 66.7151 61.9449 80.5403 0.000361256 0.000268527 -0.000424924
448 1 67.856 62.4699 83.2659 0.000238411 -0.000215204 -0.000113974
449 1 70.4348 62.1279 84.9353 -0.000190437 0.000869215 -1.92421e-05
450 1 68.3916 59.7219 84.7302 -0.000721391 0.000317246 6.67383e-05
451 2 70.6968 60.059 83.2269 -7.86321e-05 0.00030287 -9.4078e-05
452 1 71.4841 63.6919 80.4647 0.617168 0.0297498 -0.230076
453 1 73.0715 61.7465 83.6017 -0.0140465 -0.0383106 -0.36253
454 3 72.0732 61.1321 81.1587 0.128822 -0.228129 0.0285448
455 1 39.487 64.3263 83.1786 -0.220351 -0.0487594 -0.471108
456 1 38.2106 66.9631 84.0252 -0.456861 0.27446 0.19195
457 1 39.3924 66.137 80.7581 -0.375657 0.273844 0.743484
458 3 40.5918 66.8753 83.2027 -0.000441276 -1.97675e-05 0.000618338
459 1 43.83 66.0025 80.0623 -0.000350529 6.55134e-05 -0.000112999
460 2 45.1205 64.5733 82.353 0.00038109 -0.00056168 0.000745542
461 1 42.3412 65.0144 82.4459 0.00049969 6.87389e-05 -0.000220769
462 1 42.0209 67.8863 81.3812 -0.000632355 -0.00020694 0.000133292
463 2 44.7635 67.5046 82.3903 3.51052e-05 -6.42327e-05 0.000356131
464 1 42.995 67.5194 84.3496 0.000101081 0.000296975 0.000747068
465 1 45.4396 65.8046 84.702 -2.48646e-05 0.000187833 0.000163858
466 1 47.8235 64.5664 83.5455 0.000210503 0.000386273 -0.000163898
467 1 46.7431 66.2966 81.1143 3.09964e-05 9.54634e-05 0.000488685
468 4 49.6532 66.6559 80.9329 -0.000599909 -0.000116984 -0.00013366
469 5 50.3115 66.1063 83.6554 0.000202477 -5.10358e-05 -0.000129834