ITEM: TIMESTEP
481
ITEM: NUMBER OF ATOMS
1742
ITEM: BOX BOUNDS ss ss ss
5.1819190461665471e+01 9.0693734673666881e+01
1.3776254250000001e+01 5.1242045750000003e+01
6.5383741283564476e+01 1.0211200095139257e+02
ITEM: ATOMS id type x y z fx fy fz
1 1 62.105 21.2371 70.3562 0.833757 -0.250653 -0.963179
2 1 64.6943 22.3071 69.6675 0.591724 -0.26721 -0.612173
3 1 67.2967 20.5633 70.0798 1.01499 0.311353 0.206585
4 1 70.2597 21.9221 69.6767 0.187225 -0.301012 0.0163831
5 1 73.3208 22.2652 69.5964 0.623189 0.331011 -0.165995
6 1 76.248 22.9411 70.1598 -0.135039 0.585552 0.2856
7 1 58.47 25.5018 70.2175 -0.499665 -1.37698 0.769706
8 1 60.1969 26.1501 68.2661 1.28438 -0.310994 -1.08288
9 2 59.9158 23.1789 69.7565 -0.00340873 -0.132023 0.186813
10 1 62.4177 24.3462 69.5138 0.237468 0.373661 -0.53615
11 4 62.6117 26.9475 66.7644 0.491008 0.0190889 0.030612
12 1 63.0309 27.4593 69.6097 -2.10162e-05 0.000336918 0.000183287
13 5 64.6905 24.6569 67.81 0.522286 0.164631 -0.337412
14 1 65.5352 27.4105 68.2473 -0.142824 -0.251403 0.152008
15 1 67.9471 25.5916 67.587 0.166262 -0.122924 -0.186253
16 1 67.3808 23.466 69.4553 0.622619 -0.548254 -0.143889
17 1 68.0716 26.5024 70.5248 5.98833e-05 0.00020245 -0.000251751
18 1 70.7344 24.1663 67.6296 0.0284705 0.0614167 0.671517
19 3 69.4463 27.4536 66.3873 0.52961 -0.0383339 -0.209466
20 2 70.3643 26.6129 68.8376 -0.000137864 3.61446e-05 0.000229053
21 2 69.6821 24.4286 70.363 -0.000104751 0.000114893 1.37334e-06
22 1 72.0158 26.6079 66.63 0.515217 -0.155858 0.130102
23 5 72.1149 24.8309 70.2037 -9.13874e-05 0.000195919 -1.25601e-05
24 1 74.0548 24.6943 68.1427 0.117532 0.383053 -0.419579
25 1 73.2634 27.2667 69.4961 -1.40276e-05 -0.000491487 2.34288e-05
26 2 76.135 26.6996 68.8832 -0.00724226 -0.10932 -0.346419
27 1 79.0165 27.5654 70.4622 0.204914 0.424525 0.270704
28 1 58.6007 28.511 69.4363 -0.0238064 0.427865 0.58768
29 2 56.4412 30.0997 69.8253 0.120338 0.149711 -0.241135
30 1 60.5184 28.9158 67.4087 0.742421 0.175269 -0.699541
31 1 59.2114 31.5974 68.302 -0.549054 -0.0426687 0.423956
32 4 61.1862 31.574 66.4431 0.784284 0.0174164 -0.305366
33 5 61.3536 29.9372 69.8648 -6.96323e-05 -9.99569e-05 -2.8148e-05
34 1 62.6193 32.5408 69.2895 -0.000793442 6.62693e-05 9.47202e-05
35 5 63.4572 29.8201 68.009 -0.425465 0.00315284 0.256087
36 3 63.7971 32.182 66.8382 0.378579 -0.145334 0.0138132
37 1 65.8646 30.3435 66.8455 0.906014 0.46149 -0.110419
38 2 66.0529 29.7617 69.4363 -0.000240352 6.54145e-05 0.000124566
39 3 65.2156 31.9672 69.1046 -0.000544626 -0.000108968 8.25253e-05
40 2 66.8139 27.9409 66.0049 0.629829 -0.00636208 -0.322094
41 2 67.4461 32.2567 65.6653 0.79776 -0.161182 -0.299397
42 1 68.0176 31.528 68.8386 -0.000495897 -0.000314711 -0.000283848
43 3 64.008 30.4707 70.7251 -5.55122e-05 -0.000135498 0.000228156
44 1 68.2739 28.4726 68.5099 -0.000154126 0.000138118 -0.000112438
45 1 69.288 30.2092 66.6128 -0.171926 -0.294558 -0.549831
46 3 71.3811 28.7397 67.8622 9.90671e-05 -0.000291383 -0.000123512
47 3 71.7705 29.9815 65.7909 0.727318 -0.17811 -0.133401
48 1 72.313 31.4561 68.04 -7.51851e-05 0.000129164 -0.000257542
49 1 70.4587 32.489 65.5532 0.614052 0.245715 -0.1587
50 1 70.541 29.9489 69.8624 -0.000367359 0.000366665 -0.000275946
51 1 74.0856 28.8436 67.2679 0.0262688 0.205431 -0.597337
52 3 74.9137 31.442 67.4757 0.418396 0.122187 0.108478
53 1 75.2152 32.3081 70.0144 -0.000121952 -0.000331739 -9.41217e-05
54 1 77.5014 32.5005 68.2729 0.711847 0.1739 0.264225
55 2 74.0102 29.8383 69.7203 -3.96505e-05 0.000187695 -0.00019499
56 1 76.6415 29.6944 69.2481 0.342975 -0.390769 -0.14168
57 1 79.5986 30.3197 69.4833 -0.0275262 0.466498 0.613413
58 3 57.139 32.9 69.5819 0.401094 -0.109207 0.158313
59 3 58.0716 34.5047 68.0915 0.0683941 0.0697146 -0.202217
60 1 57.3638 35.5979 70.3563 0.153026 0.191808 -0.0290312
61 1 60.522 34.2927 67.4343 1.076 -0.085821 -0.718251
62 1 62.1478 36.9428 67.2727 0.701942 -0.141822 -0.745984
63 1 59.7591 36.8263 68.9838 -0.534614 0.183973 -0.108287
64 4 62.5447 35.8357 69.7837 -0.000102354 0.000204395 5.15501e-05
65 1 60.1044 33.8869 70.2269 -0.000382009 0.000431263 0.000135692
66 3 63.2333 34.4115 67.4858 0.344256 0.497633 0.194242
67 5 66.1229 33.609 67.3191 -0.59728 0.183398 0.257826
68 3 67.2871 35.731 66.1279 0.64412 -0.0760771 -0.304662
69 1 65.131 36.4067 67.5316 -0.818686 -0.209407 0.23691
70 1 65.1146 34.5172 69.863 -0.000671858 -0.000218368 0.000233733
71 3 67.7105 36.0427 68.5272 -1.32938e-05 -1.1301e-05 5.47682e-05
72 1 68.0921 34.1059 70.3872 0.00011739 0.000368423 -0.000223918
73 1 66.9063 36.9277 70.7594 0.000538218 -0.000117415 0.000274696
74 1 68.978 33.9555 67.5592 -4.27182e-05 0.000618082 0.000295463
75 3 69.8279 35.0784 65.3878 0.189111 0.0699815 -0.42539
76 5 69.8097 36.9131 67.1624 0.261614 -0.109043 -0.440672
77 1 70.5508 35.7369 69.8803 -0.00045653 -0.000350183 3.62732e-05
78 1 71.8979 34.4326 67.5646 4.82367e-05 -0.0001096 -0.000100786
79 2 70.5513 32.8582 69.6344 -0.000203093 6.53155e-05 -6.9017e-05
80 2 73.011 33.9657 70.0978 -0.000161584 -1.02899e-05 -0.000162868
81 4 73.3397 32.9591 65.726 0.500819 -0.234197 -0.165405
82 4 73.4462 36.4086 69.257 -0.000124587 0.000100136 0.000176062
83 1 75.1168 34.4376 67.9938 -0.29035 -0.496409 -0.710151
84 4 72.7428 36.8795 66.6467 0.0520393 0.0736473 -0.212077
85 4 75.8696 37.1889 68.3381 0.214907 0.0639791 0.115998
86 3 80.1678 33.0041 69.662 -0.0291565 0.0680343 0.154825
87 1 78.4379 35.2541 69.7055 0.668363 -0.4144 0.194359
88 1 61.7336 39.2666 68.8723 0.574548 0.374903 0.209716
89 4 60.0118 41.518 68.9603 0.190277 -0.127122 -0.00053783
90 2 64.4473 37.7376 69.8137 0.000592863 0.00013535 -0.000168875
91 1 64.3876 39.6146 67.8572 0.844253 0.399517 0.112904
92 1 67.0837 38.3994 67.2393 0.423226 0.244683 0.256109
93 2 67.7948 40.9035 68.0532 0.777238 -0.0628882 -0.175112
94 1 66.6443 39.917 70.2534 7.24564e-05 3.75377e-05 -0.000118981
95 3 64.0747 40.2289 70.5429 0.000309259 0.000399979 -3.46572e-05
96 1 70.675 41.1145 68.5133 0.169942 -0.101845 -0.242095
97 1 69.1509 38.4685 69.3633 -9.67233e-05 -0.000118154 -0.000108104
98 4 71.9453 38.4419 68.7842 -0.148812 0.108481 -0.115925
99 3 69.2285 40.7682 70.5578 0.00039436 -0.000131374 0.000136947
100 4 73.6521 40.5161 68.6552 0.158177 0.140105 -0.0235789
101 4 76.4513 40.5283 70.4389 -0.104913 0.155472 0.297204
102 1 62.8919 42.173 69.1672 0.0701985 0.053222 0.167459
103 1 65.8302 42.485 68.8366 0.231813 0.0192266 -0.173029
104 4 64.3149 44.708 69.9872 0.0679588 -0.0911263 0.214139
105 4 71.7026 43.9133 68.7864 0.333318 0.130462 -0.165015
106 1 68.828 43.2971 69.2822 0.330319 -0.448352 -0.0636175
107 5 70.0483 45.8603 70.0953 0.0546084 -0.373266 0.523447
108 1 63.2829 17.934 75.4136 0.0122351 -0.0707354 0.143672
109 1 65.7086 18.05 73.9712 0.629395 0.141988 0.106446
110 5 68.7261 15.9112 75.6589 0.403379 -0.0143131 0.52223
111 1 70.3962 17.7618 74.2696 0.249625 0.0260977 0.20551
112 3 73.0291 16.8354 75.3774 0.654311 -0.38163 -0.432323
113 1 58.6628 22.0087 74.5044 0.135568 -0.332647 0.587824
114 2 56.2714 22.6945 75.1847 -0.389396 -0.0852978 -0.285005
115 1 60.5658 21.7356 72.4654 -0.285303 -0.292196 0.758016
116 1 61.1205 19.9967 74.8663 0.339024 0.333753 -0.354436
117 5 63.6449 20.4214 73.8442 0.171339 0.583561 1.12695
118 3 62.1972 22.6312 74.4935 0.000402697 -2.05659e-05 -0.000152757
119 1 63.7048 23.0029 72.3125 -1.40831e-05 -1.34452e-05 0.000136124
120 1 68.0266 19.3301 72.8109 -0.0645994 -0.411569 0.454007
121 1 64.969 19.9971 71.6371 0.30508 -0.434124 -0.524194
122 2 66.8662 20.9923 74.3903 -8.87832e-05 -0.000725249 0.000648829
123 2 66.3443 22.2941 72.219 3.79626e-05 -0.000322473 0.000610202
124 5 68.144 18.7095 75.9168 9.50477e-05 -0.000113718 2.84205e-05
125 1 65.1268 22.7715 75.1516 8.43543e-05 -0.000207251 0.000169317
126 1 74.044 18.5959 73.8975 0.435296 0.825626 -0.408793
127 2 69.9972 19.4792 71.2015 0.860097 0.241384 -0.412594
128 1 69.1021 22.0824 72.4054 -5.85251e-05 -0.000292185 -0.000277602
129 1 71.4181 20.3664 73.5871 -0.000218524 -0.000113733 0.000353678
130 1 72.1245 22.8435 72.2348 -0.000305694 0.000268769 0.000153302
131 2 70.6226 23.1245 74.7333 0.000451813 -0.000412898 8.39296e-05
132 1 72.8274 19.9938 71.2257 0.546614 -0.463434 -0.138703
133 5 69.503 20.9255 75.3715 -9.55118e-05 -8.39718e-05 0.000686065
134 2 72.6642 21.9798 75.6748 0.000196686 -0.000159994 0.000391717
135 3 75.4084 21.0259 71.7427 -0.0307795 -0.202681 0.282125
136 2 73.9959 21.2453 73.6968 -0.000827858 -0.000477365 -0.000332022
137 1 76.8326 20.1369 74.3049 -0.0603693 0.118406 0.0243936
138 1 77.4598 22.7423 73.2716 0.173264 0.278731 -0.683773
139 1 79.8823 21.2443 75.4915 0.910124 0.562962 -0.530183
140 1 55.3255 25.2041 75.6792 -2.28736 -1.07163 1.04291
141 3 58.6146 23.7467 72.3431 0.211492 -0.633418 -0.589256
142 1 56.8074 27.3289 71.4684 -0.654666 -0.363071 0.968225
143 3 59.2368 26.3132 72.6074 8.95995e-05 -4.80439e-05 6.85262e-05
144 1 57.3525 25.1504 73.9784 0.672267 0.45484 -0.758763
145 2 55.5698 27.7255 74.6209 -0.345289 0.246141 -1.25265
146 1 61.0903 24.4934 71.967 -0.000190116 1.49544e-05 -7.40909e-05
147 3 61.4446 26.6793 73.4315 -0.000179882 7.16264e-05 7.96744e-05
148 2 60.8157 26.8452 70.7509 -5.29699e-05 -6.68358e-05 0.000227499
149 3 63.2368 25.9755 71.8517 -0.000135055 0.000459949 -0.000108736
150 1 63.3046 25.0954 74.3778 0.000221384 -0.000155441 -0.00011567
151 1 60.3063 24.6124 74.7174 -8.66814e-05 -0.000225581 -1.04609e-05
152 3 65.6968 24.6464 73.2591 0.000644867 -1.65165e-05 -0.000131982
153 1 65.3574 25.2142 70.6774 0.00020736 -0.000110143 8.87614e-05
154 3 67.7268 24.3221 71.9801 -0.000336923 -9.235e-05 2.64551e-05
155 3 64.8744 27.0102 73.4809 0.000391415 -9.14019e-05 -0.000116397
156 1 67.551 26.6471 73.4034 0.000179561 -0.000241613 0.000506791
157 1 67.9628 23.781 74.6494 -0.000101423 -0.00073945 0.000219059
158 1 65.9149 25.8464 75.8344 0.000639341 -0.000191772 0.000280047
159 1 70.2281 25.0892 72.9577 0.000169056 4.63824e-05 -0.000244699
160 3 69.9755 27.5773 73.9519 0.000311308 0.000274658 0.000101727
161 1 70.7957 27.4568 71.3513 4.06118e-05 -0.000180168 -6.69523e-05
162 4 72.9094 24.3106 74.5263 -1.01983e-05 0.000486041 0.000169644
163 1 72.4952 28.0199 74.6758 0.000427969 0.000153472 -0.000270542
164 1 70.9453 25.7528 75.9921 2.73286e-05 0.000131169 9.00385e-05
165 3 74.7388 23.3718 72.3708 -0.00016297 3.75803e-05 -0.000324027
166 3 74.9802 25.1489 70.6332 0.000205598 -0.000489123 -0.000375281
167 1 73.3853 26.0615 72.4964 -0.000260501 3.04875e-05 0.00034105
168 1 78.0768 25.0596 71.5229 -0.222637 -0.609987 -0.428179
169 3 76.0379 25.2978 73.1155 -8.6613e-05 -0.000507124 5.4728e-05
170 1 78.4376 27.0025 73.7189 0.000226975 -0.000102798 0.000232072
171 1 76.0565 27.5468 71.3798 0.000348008 0.000254436 0.000164858
172 1 75.3189 22.9747 75.1372 -0.000106494 -0.000101538 -0.000431557
173 4 76.413 27.8766 76.2131 -0.000401225 0.000283246 0.000314618
174 2 77.5522 24.8757 75.1947 -0.000128366 -0.000475265 0.00051032
175 1 81.1265 25.9917 72.4898 -0.0477991 0.892626 -0.219145
176 3 83.3277 27.2209 74.105 -0.394068 -0.090583 -0.220296
177 1 80.0906 24.2282 74.489 -0.214218 -0.324607 -0.522311
178 3 80.9755 26.6919 75.3071 -0.00013415 -2.03282e-05 0.000472537
179 3 54.6289 32.4373 73.8143 -0.378003 -0.00915688 0.497293
180 1 53.8902 29.8925 74.9405 0.145802 -0.226936 -0.169
181 1 54.8601 29.3094 72.3047 -0.00455351 0.0792673 -0.113384
182 3 57.5201 29.7278 72.0674 -2.24622e-05 4.26031e-05 0.00032263
183 1 56.0107 32.0019 71.7105 0.344342 -0.0306102 -0.144144
184 1 59.6015 31.1123 74.0426 3.48236e-05 0.000104859 1.29113e-05
185 1 58.1218 28.0764 74.1453 7.49873e-05 0.000125942 0.000213087
186 5 59.0198 31.403 71.0766 -2.13051e-05 -5.85974e-05 0.00012715
187 1 56.7419 30.6804 74.3367 -0.00037622 -0.000139274 -0.000717422
188 1 60.0135 28.8734 72.1137 1.02175e-05 -2.11968e-05 0.000401403
189 1 62.8637 28.5887 72.379 0.000171057 -0.000284068 0.000547101
190 1 61.859 31.6843 72.0804 -0.000433972 -0.000109646 0.000377399
191 2 62.4656 30.5043 74.376 -0.000170003 0.000190182 0.000632064
192 1 60.8782 28.5168 75.0491 0.00024036 0.000156083 -7.28203e-05
193 1 63.68 28.1201 75.5307 0.000395073 -0.000113389 -4.00466e-05
194 1 65.7249 28.1768 71.3786 -3.38992e-05 0.000471571 0.000138579
195 1 68.0527 29.6442 73.5274 9.62105e-06 -0.000260221 -0.000782896
196 1 64.9791 30.2641 73.3936 9.76767e-05 -0.000136914 0.000310216
197 1 66.7431 31.6005 71.4448 -0.000264992 0.000342348 0.000244408
198 3 68.2486 29.2666 71.0083 -0.000534106 0.000807286 -0.000478343
199 3 66.2218 28.5295 75.0297 0.00027086 -0.000119896 -9.02886e-05
200 1 70.982 29.9421 73.0024 0.000453251 0.000189352 1.80909e-05
201 2 69.4344 31.6667 71.5985 -0.000216923 0.000291141 5.00308e-05
202 2 73.2916 28.7017 71.7829 -2.88773e-05 -8.59843e-05 -0.000137498
203 1 72.6295 31.4618 71.189 -8.0354e-05 0.000204388 0.000146045
204 2 70.2424 29.4982 75.6354 0.000281334 0.000171863 -0.000255937
205 1 69.5784 32.0164 74.5888 7.18924e-05 0.000179629 -1.84076e-06
206 1 72.4343 32.1477 74.862 3.30732e-05 -0.000337113 4.07128e-05
207 2 73.6829 30.3021 73.5297 0.000232865 -0.000273984 -0.00028907
208 4 75.2521 28.0876 73.9115 0.000121963 -0.000514233 4.15234e-06
209 1 76.0229 30.4351 72.2084 0.000631934 -0.000254234 -0.000328415
210 4 77.6572 29.5646 74.5678 -0.000550145 -0.000584346 -0.000445143
211 1 77.1659 32.6961 74.2814 0.000803888 -2.34632e-05 -0.000111815
212 3 81.7111 28.7364 71.0838 -0.445657 0.00856352 -0.220949
213 2 78.6798 29.7504 72.0295 0.000253663 6.79108e-05 8.78637e-05
214 4 79.5034 31.1641 74.3175 -2.74557e-05 -0.000410338 0.000405741
215 1 80.9472 28.7725 73.555 -0.000110847 -0.000619793 0.000221432
216 1 81.237 31.4192 71.9812 -0.0543285 0.07985 -0.107176
217 4 80.1635 29.147 76.1862 -8.55427e-05 -0.000503384 -0.000370324
218 3 81.9094 31.07 75.2165 -3.58323e-05 2.45685e-05 -0.000142032
219 1 83.6757 29.8751 73.6458 -0.0549173 0.269907 0.0838086
220 4 53.4722 34.3797 75.216 -0.173882 0.197088 -0.0300121
221 1 55.2976 34.7949 72.2369 -0.163083 -0.0066442 0.586676
222 2 58.2084 33.6837 71.9882 -0.000516859 -0.000132469 0.000346327
223 1 57.8995 36.2983 73.2837 0.000102587 -0.000112276 -0.000241253
224 1 57.2373 33.6418 74.3273 0.000143496 0.000351426 -0.000350834
225 1 55.6538 36.1871 75.1125 0.482403 -0.187209 0.184334
226 3 59.4298 35.0201 75.7191 -0.000362864 -0.000189581 -0.000254852
227 1 60.3827 33.8776 73.6528 -0.000367126 -5.28175e-06 -0.000100431
228 2 62.3513 34.4 71.88 3.62749e-05 -0.000238989 -0.000119715
229 1 60.4156 36.3761 71.8235 0.000155264 0.000504479 -0.000239239
230 1 63.3502 32.9828 74.9037 -7.33736e-05 -0.00010955 0.00069542
231 1 62.5933 35.745 74.489 0.000357446 0.000251465 0.000211228
232 2 60.2599 36.8452 74.4195 -0.000189133 -0.000862458 0.000179763
233 5 64.4377 32.987 72.1983 -0.000493733 0.000277869 -2.29488e-05
234 3 66.5142 34.6913 72.4829 -0.000339804 -0.000344179 2.31441e-05
235 1 64.3733 36.171 72.2994 0.000124957 -4.69422e-05 -8.17116e-05
236 3 65.2945 35.0605 74.7208 0.000112138 0.000402981 6.93243e-05
237 1 66.4922 32.6348 74.3714 -5.53304e-05 1.45685e-05 0.000449806
238 3 67.8499 34.8407 74.734 0.000182066 -0.0001162 -3.00659e-05
239 3 68.5742 33.5428 72.8485 1.40151e-05 0.000286222 -0.000492513
240 1 71.2755 33.7395 72.3285 0.000210893 0.000146884 5.18321e-05
241 1 69.4646 36.0625 72.6833 0.000272993 1.58697e-06 5.15821e-05
242 1 73.2387 36.1386 72.0758 0.000317114 -0.000225396 -0.00022776
243 3 71.8163 36.8046 74.2188 0.000151612 -0.00018272 -4.1442e-05
244 5 70.6536 34.6928 74.9936 0.000315806 0.000177425 0.000200865
245 3 73.1791 34.693 74.2795 0.000335931 -0.000702331 0.000131838
246 3 69.0685 36.6976 75.609 0.000361299 0.000380149 -0.000175085
247 4 79.1937 34.1721 75.8905 0.00101392 -0.000262177 0.000191346
248 1 74.5251 33.0186 72.8256 -0.000163893 -0.000431337 -0.000132992
249 1 75.7999 35.2214 70.7929 -9.86051e-06 3.44732e-05 -0.00023078
250 4 76.0094 35.3015 73.4994 0.000551486 -0.000179154 -0.000226311
251 1 74.5264 37.0478 74.9385 0.000864593 -0.00104824 0.000538419
252 1 78.201 32.5829 71.4244 -0.000105431 5.77746e-05 0.000113506
253 3 80.5837 33.2824 73.9352 -0.000809223 -0.000887951 -0.000282628
254 1 81.1952 34.6331 71.7778 0.712406 0.015802 -0.361859
255 1 78.7567 35.3624 72.9461 5.76131e-05 0.000483842 0.000230315
256 1 83.2941 33.0193 73.8334 -0.457278 0.102957 -0.239881
257 2 81.5018 35.3632 74.8764 -0.000138519 -0.000643387 -0.000258368
258 1 82.9912 36.8349 73.2913 -0.18715 -0.354921 0.00310765
259 1 84.4938 35.2484 75.5297 -0.233315 0.183798 0.34385
260 4 57.3099 38.3795 71.2731 0.255677 0.311162 -0.21489
261 4 59.5303 38.887 73.2965 7.26051e-05 -0.000159163 -2.11705e-05
262 2 57.2581 39.0377 74.4421 0.176405 -0.0245998 -1.14803
263 1 58.4866 41.5391 73.65 0.375726 -0.0376375 -1.18839
264 4 55.2951 37.7493 72.7172 -0.287518 -0.00329127 0.383914
265 5 59.7997 39.3323 70.7654 -0.543336 0.196527 0.183699
266 1 62.5128 38.3784 71.7055 0.000289964 0.000318417 -0.00016538
267 2 62.0925 38.5167 74.3288 0.000126777 -2.72865e-05 -0.000324644
268 3 61.8819 40.9414 71.2453 7.53174e-05 -3.14572e-05 1.9655e-05
269 1 63.9619 40.4775 73.4376 0.000175419 0.000271879 -0.000234466
270 4 61.1976 41.0054 73.647 0.000125314 -0.000138287 -0.00030527
271 1 67.0389 37.1554 73.7274 0.000139713 5.59072e-05 -6.5532e-05
272 3 65.3146 38.6434 72.2101 9.2109e-06 1.86204e-05 0.000241372
273 1 67.0788 40.4289 73.3871 0.000380939 -7.62108e-05 -1.09854e-05
274 1 64.6608 37.8555 75.1138 0.000198163 0.000208816 -9.89298e-05
275 2 68.5984 38.7432 71.9922 0.000297203 -4.03968e-05 0.000222625
276 5 67.6593 38.9093 75.8582 0.000144947 0.000207332 7.94642e-05
277 2 69.0876 41.1129 75.4478 0.000215288 8.45816e-05 -1.14216e-05
278 1 70.0485 38.7249 74.2653 0.000458283 -7.42195e-05 0.000332898
279 4 71.1566 38.1026 71.583 0.000461691 0.000134754 -0.000110995
280 4 73.2277 39.1769 73.2068 0.000382183 -0.000553256 -0.000127241
281 1 70.1204 41.3426 72.942 0.000300696 -0.000148693 0.000365893
282 4 72.1364 40.3695 71.047 0.000405075 -7.80356e-05 0.000366736
283 1 72.0244 40.761 75.3313 0.000460929 -0.000157691 -0.000169377
284 4 74.4303 38.5833 70.6131 0.000499581 -0.000216735 4.41214e-05
285 5 76.0373 38.239 72.928 0.00028441 0.000324092 0.000512048
286 4 75.6701 40.983 73.1368 -0.000109302 0.00016798 -0.000133772
287 4 77.4302 37.9158 70.7078 0.515519 -0.0849206 -0.211665
288 2 77.8962 41.8631 74.7709 -0.000109055 -0.000135354 -0.000787144
289 1 77.1639 39.3754 76.3528 -0.000328795 -5.37214e-05 0.000122427
290 1 75.1183 42.1957 75.7925 0.000344741 -0.000707839 0.000295496
291 4 80.4252 40.6614 71.5763 0.0911013 -0.0631892 0.0957232
292 1 78.6207 39.5823 73.4242 5.27314e-05 1.57113e-05 -8.45198e-05
293 1 82.3431 39.5529 74.1551 0.0841945 -0.356331 -0.113094
294 2 80.4346 37.5786 74.2767 -3.75459e-05 0.000195472 -6.4089e-05
295 1 80.3675 37.6965 71.6037 -0.0322694 -0.495453 0.43948
296 4 85.2449 38.1899 75.4304 -0.375979 -0.244949 -0.14256
297 2 57.8187 43.9476 74.7364 0.119283 0.19832 0.159732
298 4 59.7006 42.441 71.4061 0.347451 0.362746 -0.157876
299 1 62.6617 43.3742 72.2008 0.310027 -0.0327018 -0.491617
300 1 60.5605 44.0806 74.0204 -0.280266 0.592699 0.025278
301 1 63.7573 45.3578 74.5701 0.374271 0.500453 -0.0770711
302 4 62.7409 42.4794 75.091 -0.00022705 6.20493e-05 -0.000121111
303 1 65.3413 42.397 71.6432 -0.000158841 7.38327e-05 0.000348847
304 2 65.124 43.0159 74.2496 0.000135597 -0.000108244 6.96152e-05
305 2 67.951 42.3981 71.6019 0.000359837 0.000115551 0.0002682
306 1 67.7459 43.3538 74.0683 8.90014e-05 -0.000218154 0.000217315
307 2 67.2562 44.6641 70.8578 -0.0754843 0.244199 0.293129
308 4 65.5129 45.3238 72.6588 0.637218 0.00262885 -0.550545
309 4 68.0767 46.5553 73.0102 0.00888106 -0.112788 0.06715
310 1 66.973 45.6309 75.8462 -0.000231167 -0.000206437 -3.69552e-05
311 2 72.3093 45.1179 74.2592 -0.000171029 0.000425543 0.000283634
312 1 69.9895 44.3359 72.5109 0.000361169 0.000137325 -0.000183759
313 3 70.6421 43.085 74.9692 0.000182894 -9.18901e-05 0.00042497
314 2 71.1718 42.6926 70.8431 -0.00033046 0.000232248 -0.000120283
315 1 73.0177 42.6773 73.4694 0.000576856 0.000205917 0.000241097
316 1 72.789 45.0309 71.591 -0.00422074 0.214341 -0.395674
317 1 69.8936 45.5673 75.4593 -4.63805e-05 -7.81629e-06 0.000311347
318 1 74.0391 42.4524 70.7781 0.544828 0.000833161 -0.20707
319 4 78.016 42.4706 72.1027 0.235868 -0.186837 0.0850467
320 1 74.6691 45.2093 76.019 0.000516276 -0.000181466 0.000101179
321 1 75.833 43.9779 73.2092 -0.441285 0.644959 0.607102
322 3 77.0588 43.9578 75.8386 -0.000210708 -0.000296944 0.000244269
323 1 80.7423 41.9947 74.2131 -0.317334 -0.11156 -0.76209
324 1 79.0621 44.4807 74.3106 0.280917 -0.540672 -0.201432
325 3 61.4929 46.6248 74.9769 0.321888 0.363507 -0.421833
326 2 66.2096 47.8949 74.5426 0.550696 0.249626 -0.870007
327 1 69.0566 48.301 75.6073 0.820282 0.364962 -0.406381
328 5 70.9111 47.0883 72.7817 0.344121 0.087688 0.468136
329 1 72.3519 47.6938 75.5191 -0.47156 -0.0808707 0.181373
330 1 74.1194 47.0264 73.5707 1.31216 -0.819108 -0.811764
331 1 77.091 46.565 74.8424 -0.0190183 -0.0940064 -0.0832438
332 1 60.0961 18.1667 79.3224 0.416335 0.322531 0.502941
333 3 62.8386 17.6317 79.6391 -1.23967 0.541464 0.210605
334 4 61.4546 16.9035 77.2354 -0.0860039 -0.493012 0.128929
335 1 64.7037 17.1539 78.1949 -0.170516 -0.140742 -0.0893488
336 1 64.315 15.5561 80.6579 1.0376 -0.228871 0.171496
337 1 67.2185 15.4479 79.1077 -0.31682 -0.121932 -0.159757
338 2 66.4771 16.8509 76.5403 0.50189 -0.189841 -0.894508
339 2 69.0325 17.1476 78.0659 -6.30862e-05 0.000347774 0.000406782
340 1 70.2669 14.8419 78.9013 0.487999 -0.074813 -0.62135
341 2 66.5025 17.3025 81.0191 0.000177171 -6.33326e-05 -0.000551303
342 1 71.4176 16.8237 77.2178 -0.00932537 -0.0650007 -0.115759
343 1 74.6251 17.5734 77.7892 -0.341951 0.352633 -0.403172
344 2 71.3089 17.3947 79.7228 -8.62466e-05 0.000128924 0.000103694
345 1 73.4842 15.9254 79.7407 1.08959 -0.366094 -0.770352
346 3 75.3459 17.9329 80.4434 0.000126589 0.000208356 -4.25837e-05
347 2 76.513 15.8754 80.6163 0.452689 -0.378892 0.321867
348 1 77.6354 17.4753 78.8369 0.0683756 -0.0142988 0.477382
349 2 76.3758 17.7793 75.9466 0.596257 0.347199 -0.623451
350 1 79.6611 16.0948 80.8517 -0.329303 0.5555 0.014199
351 1 80.7206 18.1982 79.0735 -0.111335 -0.180913 0.171449
352 2 55.6839 22.8293 77.5643 0.0666521 -0.0808928 0.34149
353 3 59.7493 19.3242 76.754 -0.229945 -0.608717 1.26728
354 1 58.068 21.1909 77.4572 0.162639 -0.0150496 0.165934
355 2 60.709 20.7663 78.667 -0.000212987 -2.68935e-05 -0.00020659
356 3 60.5682 22.928 79.6977 1.65487e-05 0.000267991 -6.43314e-05
357 2 56.5119 20.8561 79.6208 0.128241 0.111272 0.519033
358 1 59.3437 20.6171 80.8055 -1.15543 -1.16925 -0.113709
359 5 62.4931 19.3594 77.7257 -0.000249152 8.12246e-05 -0.000160223
360 1 64.6724 19.9809 79.4876 -0.000465093 -0.00048049 -0.000269587
361 1 60.7916 22.3889 76.7298 -0.000181869 -0.000486788 4.71137e-05
362 1 63.0579 22.5464 79.6714 -2.68524e-05 0.000754832 9.84946e-05
363 2 63.2545 21.4163 76.5247 0.000541224 9.90291e-06 0.000318134
364 1 62.1354 19.8849 80.954 -1.52297e-05 8.0768e-06 -2.78188e-05
365 1 65.437 19.7943 76.4624 -0.000214136 4.7347e-05 0.000479652
366 1 67.1885 18.6977 78.828 -0.000148854 0.000471199 -0.000192491
367 2 65.2219 22.1324 78.0588 -0.000337669 -3.19491e-05 0.000222257
368 1 67.651 21.9918 77.0943 -0.000341829 -0.00023869 8.06189e-05
369 1 65.8023 22.9643 80.9227 0.000175973 -1.5382e-05 -0.000193047
370 1 67.8956 21.2702 79.9265 0.000997323 0.000422186 0.00051462
371 5 70.8386 19.5148 80.946 0.00043928 9.10748e-05 0.000349532
372 1 70.0702 19.7772 78.1807 0.000237723 0.000155113 0.000416334
373 2 73.0805 18.9971 79.3722 0.000183962 -0.000216617 0.000426834
374 1 72.2794 19.3896 76.257 -0.000212169 7.05641e-05 -0.000601938
375 1 70.636 22.8845 77.4723 0.00010587 8.34094e-05 0.000406266
376 1 73.1244 21.3788 78.3559 7.04618e-06 0.000163273 0.00040898
377 3 70.8294 21.8485 79.9648 -0.000102556 0.000350615 0.000686882
378 5 75.0162 20.1743 76.3724 0.000238086 -0.000589562 -0.00033959
379 1 75.9989 20.109 79.2275 -9.40268e-05 -0.000194559 0.000390116
380 2 75.6477 22.2993 77.6928 0.000332637 -0.000113524 -0.000283899
381 1 78.3088 19.816 77.2664 -0.6368 -0.020847 -0.32956
382 1 78.183 22.3959 78.9333 -0.000185181 -0.000150197 -0.000155429
383 2 77.7442 22.5662 76.232 -0.000261015 1.07606e-05 -0.000262688
384 1 75.4483 22.9691 80.2998 -0.00030747 0.000830972 -0.000999861
385 3 78.8678 19.7468 79.8758 -0.000461511 -0.000434726 0.000210227
386 5 82.3357 19.669 77.4142 0.290209 0.600789 -0.292045
387 1 81.0331 21.434 79.2617 -0.000175989 -0.000552842 1.74964e-05
388 1 82.6288 22.4636 76.523 0.361272 -0.523887 0.171794
389 1 84.34 21.6455 79.2335 -0.0565153 0.288519 -0.834787
390 1 83.1084 19.7334 80.9885 -0.101396 -0.518182 -0.383021
391 1 54.154 27.5543 76.9139 -0.560452 0.107119 0.424475
392 1 55.143 23.2456 80.2601 0.678253 -0.227633 -0.590565
393 3 54.3609 25.8888 79.4837 -0.152198 0.657262 -0.233192
394 1 58.0807 23.256 79.6982 6.97275e-05 -0.000182339 -0.000142509
395 1 58.1874 24.1288 76.752 -0.000163298 -0.00012438 -0.000316
396 4 56.3374 25.2297 78.465 0.000259948 5.09438e-05 0.000196135
397 1 57.1308 27.153 76.6816 0.000134669 -0.000436952 0.000141543
398 2 59.5706 26.6082 76.261 -0.000142533 -0.000130312 -0.00040263
399 1 58.7806 26.8362 79.0002 0.000456661 0.000573827 -0.000138421
400 1 60.7465 24.9404 78.1283 -0.000483598 -0.000694057 -0.000401231
401 1 63.4486 24.1316 77.2483 0.000271515 -1.94486e-05 -0.000118188
402 3 62.0068 26.2514 76.2576 -7.99813e-06 9.78124e-05 -5.78198e-05
403 3 62.3028 26.0129 79.8552 0.000791154 -0.00104362 -0.00158556
404 1 64.2227 26.8617 78.1515 0.000695057 -0.00033818 -9.7195e-05
405 1 62.9189 24.5416 81.9934 0.000456077 0.000855098 0.000929108
406 2 64.7363 25.4633 80.3479 0.000826365 2.26298e-05 0.000271174
407 1 66.3602 24.534 78.4436 0.000344651 0.000116583 -0.000506602
408 2 68.6807 24.7616 77.0559 -1.45344e-05 0.000301459 0.00014671
409 1 68.4308 26.5884 79.0842 -0.000653092 -0.000206397 -5.29273e-05
410 1 68.4812 27.4983 76.1899 0.000302011 -7.47763e-05 -4.51244e-06
411 1 69.056 23.8807 79.9399 0.000177251 5.54688e-05 0.000536703
412 2 67.0153 25.6238 81.3559 0.000123555 4.22083e-05 0.000181814
413 1 73.4773 24.1509 77.3751 0.0001444 -0.000306231 0.000437543
414 1 71.3266 25.7071 79.1478 -0.000395693 0.000320706 -0.000366012
415 4 74.986 25.8255 75.3573 0.000750079 -0.000548743 0.000257027
416 3 72.6241 23.5016 80.0137 -2.65294e-05 0.000541343 6.3923e-05
417 1 74.2889 25.6841 79.7794 -0.000439309 0.000457086 0.000313962
418 1 76.6213 24.794 77.7986 -4.33602e-05 -4.52444e-05 -5.04567e-05
419 3 75.9655 27.2923 78.5611 -0.000508828 -0.000117348 -0.000255097
420 1 79.3462 25.2381 79.6098 0.00022397 0.000537408 0.000455488
421 1 78.8452 26.6992 76.9724 -0.00037093 -3.73184e-05 0.000623142
422 3 77.7384 23.8532 81.2789 0.000159363 -0.000271595 0.000374115
423 2 76.9513 25.937 80.3255 -0.00018184 -4.51858e-05 3.19749e-05
424 2 80.1859 23.2264 81.1939 -0.000327753 -0.000194559 6.01841e-05
425 1 80.2015 23.8634 77.284 -8.79637e-05 -0.000101737 -0.000107278
426 2 82.6341 23.9306 78.8464 -9.00552e-05 -0.000427847 6.68147e-06
427 1 81.7073 26.6157 78.2543 -8.7186e-05 -7.53682e-05 9.88343e-05
428 1 83.1353 25.3139 76.0494 0.372545 0.0315172 0.227477
429 3 84.1729 26.232 79.343 0.000122298 0.000107136 0.000130808
430 1 82.1974 25.3137 81.0709 -0.000660788 0.000241257 3.69885e-05
431 1 85.4453 24.1237 78.0554 -0.506187 0.708279 -0.351139
432 3 85.2719 26.8751 77.193 -0.430872 -0.592118 0.466163
433 1 85.2124 24.1684 80.9504 0.000150791 4.11315e-05 8.46208e-05
434 3 87.7137 24.076 80.4698 0.147083 0.164421 0.0157087
435 1 86.8612 26.5653 79.6664 -0.43073 -0.242686 -0.0730795
436 1 52.9783 28.1339 79.4653 -0.334988 -0.125973 0.621618
437 1 56.2399 28.4997 79.1302 0.000371104 -0.00025572 0.000396074
438 3 52.976 31.9655 76.0177 -0.40414 0.382628 0.209851
439 1 54.295 30.5139 78.1085 0.000173327 8.23267e-05 6.86915e-05
440 2 54.5417 29.8871 80.7942 0.000264595 5.83656e-05 0.0001006
441 4 51.8235 29.6492 76.8642 -0.161164 -0.0612413 0.445844
442 5 52.255 30.9921 79.9167 -0.515485 0.297588 0.757473
443 3 56.0905 29.5163 76.5179 0.000233601 0.000140409 0.000151133
444 5 58.7581 29.5223 76.6458 0.000235368 -0.000101263 0.000356131
445 3 57.1396 31.0217 78.1254 -8.85627e-05 6.68842e-05 0.000357346
446 1 55.6147 32.4156 76.3502 -0.000335979 -0.000424469 0.00121165
447 1 59.1164 29.83 79.415 0.000147779 0.000114696 0.00052973
448 1 59.4853 32.2157 81.6902 0.000827907 0.000470706 -0.000410436
449 1 61.429 28.1249 78.0825 0.000774924 -0.000384379 0.000226393
450 2 63.8207 29.5337 78.5357 0.00101129 -0.000125198 0.000755072
451 1 61.7959 30.5061 80.1983 0.000631911 0.000108104 -0.00020182
452 1 61.5051 30.9037 76.869 -6.91153e-05 -0.000213157 0.000169771
453 1 63.4278 32.4016 78.5931 0.000273961 0.000587656 -6.15486e-05
454 1 64.6658 30.7104 76.3325 -9.7997e-05 0.000190121 4.3528e-05
455 2 60.6823 27.9128 80.6744 0.000570528 -0.000197996 0.00026658
456 1 63.5105 28.1553 80.8716 -0.0008813 -0.00160041 0.000631
457 1 64.856 31.2055 80.9061 0.000371976 -0.000289875 -0.000238639
458 2 66.1382 30.6681 78.6628 0.00053373 0.000889106 -0.000323406
459 3 66.2518 28.4014 77.4594 0.000404379 0.000155495 -0.000135382
460 1 68.7564 29.3793 78.628 -6.01995e-05 -0.000154977 -0.000141561
461 1 68.282 32.1012 79.4671 0.000346829 0.000332593 0.000258144
462 1 67.6021 30.6341 76.3331 -0.000232781 1.8964e-05 -0.000638992
463 2 70.1204 31.3314 77.2993 -7.95402e-05 -0.000174316 0.000115231
464 2 70.5755 28.1636 80.2746 4.8146e-06 -0.000733317 7.61745e-05
465 1 66.2923 28.2213 80.1775 0.000270395 0.000993012 0.000423085
466 5 65.8255 29.3567 82.8017 -0.000429662 0.000308178 -0.000245108
467 2 70.9071 28.03 77.66 4.18082e-07 -0.000132143 0.000181451
468 1 73.558 27.2671 77.3442 -1.92835e-05 0.000283971 -0.000308048
469 1 72.6076 30.0942 76.977 0.000455147 0.000176922 0.000173626
470 1 71.3266 30.7018 79.5993 -0.000516823 -0.000262789 7.35735e-05