LAMMPS (2 Aug 2023)
WARNING: Using I/O redirection is unreliable with parallel runs. Better to use the -in switch to read input files. (src/lammps.cpp:537)
OMP_NUM_THREADS environment is not set. Defaulting to 1 thread. (src/comm.cpp:98)
  using 1 OpenMP thread(s) per MPI task

    dimension 3
    units metal
    boundary s s s
    atom_style atomic
    timestep 0.001
    region myregion block 49.82347705876725 92.6894480765651 11.7804 53.2379 63.38781329512895 104.1079289398281  units box
    create_box 5 myregion
Created orthogonal box = (49.823477 11.7804 63.387813) to (92.689448 53.2379 104.10793)
  6 by 4 by 4 MPI processor grid
    mass 1 91.224
    mass 2 63.546
    mass 3 58.693
    mass 4 26.982
    mass 5 47.867 
    pair_style eam/alloy
    pair_coeff * * ZrTiCuNiAl_Zhou04.eam.alloy Zr Cu Ni Al Ti
Reading eam/alloy potential file ZrTiCuNiAl_Zhou04.eam.alloy with DATE: 2018-03-30
    create_atoms 1 single 62.105011620062115 21.2371 70.35620676217765
Created 1 atoms
  using lattice units in orthogonal box = (49.81919 11.776254 63.383741) to (92.693735 53.242046 104.112)
  create_atoms CPU = 0.000 seconds
create_atoms 1 single 64.69430458355009 22.3071 69.66747277936963
Created 1 atoms
  using lattice units in orthogonal box = (49.81919 11.776254 63.383741) to (92.693735 53.242046 104.112)
  create_atoms CPU = 0.000 seconds
create_atoms 1 single 67.29666256133355 20.5633 70.07978842406878
Created 1 atoms
  using lattice units in orthogonal box = (49.81919 11.776254 63.383741) to (92.693735 53.242046 104.112)
  create_atoms CPU = 0.000 seconds
create_atoms 1 single 70.25966702478755 21.9221 69.67672022922636
Created 1 atoms
  using lattice units in orthogonal box = (49.81919 11.776254 63.383741) to (92.693735 53.242046 104.112)
  create_atoms CPU = 0.000 seconds
create_atoms 1 single 73.32075517099696 22.2652 69.59640813753583
Created 1 atoms
  using lattice units in orthogonal box = (49.81919 11.776254 63.383741) to (92.693735 53.242046 104.112)
  create_atoms CPU = 0.000 seconds
create_atoms 1 single 76.24800716160553 22.9411 70.15979896848138
Created 1 atoms
  using lattice units in orthogonal box = (49.81919 11.776254 63.383741) to (92.693735 53.242046 104.112)
  create_atoms CPU = 0.000 seconds
create_atoms 1 single 58.469975001500146 25.5018 70.21749501432666
Created 1 atoms
  using lattice units in orthogonal box = (49.81919 11.776254 63.383741) to (92.693735 53.242046 104.112)
  create_atoms CPU = 0.000 seconds
create_atoms 1 single 60.196855064716075 26.1501 68.26608206303726
Created 1 atoms
  using lattice units in orthogonal box = (49.81919 11.776254 63.383741) to (92.693735 53.242046 104.112)
  create_atoms CPU = 0.000 seconds
create_atoms 2 single 59.91576678938045 23.1789 69.75652974212035
Created 1 atoms
  using lattice units in orthogonal box = (49.81919 11.776254 63.383741) to (92.693735 53.242046 104.112)
  create_atoms CPU = 0.000 seconds
create_atoms 1 single 62.41772770689701 24.3462 69.51378418338109
Created 1 atoms
  using lattice units in orthogonal box = (49.81919 11.776254 63.383741) to (92.693735 53.242046 104.112)
  create_atoms CPU = 0.000 seconds
create_atoms 4 single 62.61173254202348 26.9475 66.76437661891119
Created 1 atoms
  using lattice units in orthogonal box = (49.81919 11.776254 63.383741) to (92.693735 53.242046 104.112)
  create_atoms CPU = 0.000 seconds
create_atoms 1 single 63.11131432581593 27.4699 69.60967621776506
Created 1 atoms
  using lattice units in orthogonal box = (49.81919 11.776254 63.383741) to (92.693735 53.242046 104.112)
  create_atoms CPU = 0.000 seconds
create_atoms 5 single 64.69054532673373 24.6569 67.81004206303726
Created 1 atoms
  using lattice units in orthogonal box = (49.81919 11.776254 63.383741) to (92.693735 53.242046 104.112)
  create_atoms CPU = 0.000 seconds
create_atoms 1 single 65.53516292872253 27.4105 68.24728561604584
Created 1 atoms
  using lattice units in orthogonal box = (49.81919 11.776254 63.383741) to (92.693735 53.242046 104.112)
  create_atoms CPU = 0.000 seconds
create_atoms 1 single 67.94710014079966 25.5916 67.58699759312321
Created 1 atoms
  using lattice units in orthogonal box = (49.81919 11.776254 63.383741) to (92.693735 53.242046 104.112)
  create_atoms CPU = 0.000 seconds
create_atoms 1 single 67.3807805242861 23.466 69.45528401146133
Created 1 atoms
  using lattice units in orthogonal box = (49.81919 11.776254 63.383741) to (92.693735 53.242046 104.112)
  create_atoms CPU = 0.000 seconds
create_atoms 1 single 68.0996458902644 26.6031 70.60789822349571
Created 1 atoms
  using lattice units in orthogonal box = (49.81919 11.776254 63.383741) to (92.693735 53.242046 104.112)
  create_atoms CPU = 0.000 seconds
create_atoms 1 single 70.73440530476363 24.1663 67.62961627507164
Created 1 atoms
  using lattice units in orthogonal box = (49.81919 11.776254 63.383741) to (92.693735 53.242046 104.112)
  create_atoms CPU = 0.000 seconds
create_atoms 3 single 69.44634322591772 27.4536 66.38734200573067
Created 1 atoms
  using lattice units in orthogonal box = (49.81919 11.776254 63.383741) to (92.693735 53.242046 104.112)
  create_atoms CPU = 0.000 seconds
create_atoms 2 single 70.55297489664709 26.6698 68.71589008595988
Created 1 atoms
  using lattice units in orthogonal box = (49.81919 11.776254 63.383741) to (92.693735 53.242046 104.112)
  create_atoms CPU = 0.000 seconds
create_atoms 2 single 69.79833861834527 24.6285 69.99897375358167
Created 1 atoms
  using lattice units in orthogonal box = (49.81919 11.776254 63.383741) to (92.693735 53.242046 104.112)
  create_atoms CPU = 0.000 seconds
create_atoms 1 single 72.01575989056163 26.6079 66.6299870487106
Created 1 atoms
  using lattice units in orthogonal box = (49.81919 11.776254 63.383741) to (92.693735 53.242046 104.112)
  create_atoms CPU = 0.000 seconds
create_atoms 5 single 72.36077382803423 24.795 70.18834544412609
Created 1 atoms
  using lattice units in orthogonal box = (49.81919 11.776254 63.383741) to (92.693735 53.242046 104.112)
  create_atoms CPU = 0.000 seconds
create_atoms 1 single 74.05484837560337 24.6943 68.14274922636103
Created 1 atoms
  using lattice units in orthogonal box = (49.81919 11.776254 63.383741) to (92.693735 53.242046 104.112)
  create_atoms CPU = 0.000 seconds
create_atoms 1 single 73.40642336400222 27.2648 69.53438991404012
Created 1 atoms
  using lattice units in orthogonal box = (49.81919 11.776254 63.383741) to (92.693735 53.242046 104.112)
  create_atoms CPU = 0.000 seconds
create_atoms 2 single 76.13500059947728 26.6996 68.8832488252149
Created 1 atoms
  using lattice units in orthogonal box = (49.81919 11.776254 63.383741) to (92.693735 53.242046 104.112)
  create_atoms CPU = 0.000 seconds
create_atoms 1 single 79.0165400229348 27.5654 70.46215037249284
Created 1 atoms
  using lattice units in orthogonal box = (49.81919 11.776254 63.383741) to (92.693735 53.242046 104.112)
  create_atoms CPU = 0.000 seconds
create_atoms 1 single 58.60074355261347 28.511 69.4362865329513
Created 1 atoms
  using lattice units in orthogonal box = (49.81919 11.776254 63.383741) to (92.693735 53.242046 104.112)
  create_atoms CPU = 0.000 seconds
create_atoms 2 single 56.44120059162421 30.0997 69.82528252148998
Created 1 atoms
  using lattice units in orthogonal box = (49.81919 11.776254 63.383741) to (92.693735 53.242046 104.112)
  create_atoms CPU = 0.000 seconds
create_atoms 1 single 60.51843089345986 28.9158 67.40868263610315
Created 1 atoms
  using lattice units in orthogonal box = (49.81919 11.776254 63.383741) to (92.693735 53.242046 104.112)
  create_atoms CPU = 0.000 seconds
create_atoms 1 single 59.211358233431014 31.5974 68.30196618911175
Created 1 atoms
  using lattice units in orthogonal box = (49.81919 11.776254 63.383741) to (92.693735 53.242046 104.112)
  create_atoms CPU = 0.000 seconds
create_atoms 4 single 61.186185126861126 31.574 66.443128252149
Created 1 atoms
  using lattice units in orthogonal box = (49.81919 11.776254 63.383741) to (92.693735 53.242046 104.112)
  create_atoms CPU = 0.000 seconds
create_atoms 5 single 61.35274789051084 29.8074 70.01515679083096
Created 1 atoms
  using lattice units in orthogonal box = (49.81919 11.776254 63.383741) to (92.693735 53.242046 104.112)
  create_atoms CPU = 0.000 seconds
create_atoms 1 single 62.55069472786418 32.4371 69.25133753581663
Created 1 atoms
  using lattice units in orthogonal box = (49.81919 11.776254 63.383741) to (92.693735 53.242046 104.112)
  create_atoms CPU = 0.000 seconds
create_atoms 5 single 63.45721023117874 29.8201 68.00896275071634
Created 1 atoms
  using lattice units in orthogonal box = (49.81919 11.776254 63.383741) to (92.693735 53.242046 104.112)
  create_atoms CPU = 0.000 seconds
create_atoms 3 single 63.79708723624412 32.182 66.83815518624642
Created 1 atoms
  using lattice units in orthogonal box = (49.81919 11.776254 63.383741) to (92.693735 53.242046 104.112)
  create_atoms CPU = 0.000 seconds
create_atoms 1 single 65.86462373853037 30.3435 66.84549283667623
Created 1 atoms
  using lattice units in orthogonal box = (49.81919 11.776254 63.383741) to (92.693735 53.242046 104.112)
  create_atoms CPU = 0.000 seconds
create_atoms 2 single 66.34706010098166 29.67 69.54755747851004
Created 1 atoms
  using lattice units in orthogonal box = (49.81919 11.776254 63.383741) to (92.693735 53.242046 104.112)
  create_atoms CPU = 0.000 seconds
create_atoms 3 single 65.24921949477731 31.8504 69.05281891117478
Created 1 atoms
  using lattice units in orthogonal box = (49.81919 11.776254 63.383741) to (92.693735 53.242046 104.112)
  create_atoms CPU = 0.000 seconds
create_atoms 2 single 66.81394334647695 27.9409 66.00487954154728
Created 1 atoms
  using lattice units in orthogonal box = (49.81919 11.776254 63.383741) to (92.693735 53.242046 104.112)
  create_atoms CPU = 0.000 seconds
create_atoms 2 single 67.44611588451873 32.2567 65.66533730659027
Created 1 atoms
  using lattice units in orthogonal box = (49.81919 11.776254 63.383741) to (92.693735 53.242046 104.112)
  create_atoms CPU = 0.000 seconds
create_atoms 1 single 68.09437501292281 31.5141 68.8472641833811
Created 1 atoms
  using lattice units in orthogonal box = (49.81919 11.776254 63.383741) to (92.693735 53.242046 104.112)
  create_atoms CPU = 0.000 seconds
create_atoms 3 single 64.11329952872268 30.351 70.61262246418339
Created 1 atoms
  using lattice units in orthogonal box = (49.81919 11.776254 63.383741) to (92.693735 53.242046 104.112)
  create_atoms CPU = 0.000 seconds
create_atoms 1 single 68.41714250399028 28.4544 68.51083793696276
Created 1 atoms
  using lattice units in orthogonal box = (49.81919 11.776254 63.383741) to (92.693735 53.242046 104.112)
  create_atoms CPU = 0.000 seconds
create_atoms 1 single 69.28802644000069 30.2092 66.6127988538682
Created 1 atoms
  using lattice units in orthogonal box = (49.81919 11.776254 63.383741) to (92.693735 53.242046 104.112)
  create_atoms CPU = 0.000 seconds
create_atoms 3 single 71.54165342471944 28.8119 67.88271495702007
Created 1 atoms
  using lattice units in orthogonal box = (49.81919 11.776254 63.383741) to (92.693735 53.242046 104.112)
  create_atoms CPU = 0.000 seconds
create_atoms 3 single 71.77051576610127 29.9815 65.79088148997135
Created 1 atoms
  using lattice units in orthogonal box = (49.81919 11.776254 63.383741) to (92.693735 53.242046 104.112)
  create_atoms CPU = 0.000 seconds
create_atoms 1 single 72.40789356367918 31.5297 68.10887541547278
Created 1 atoms
  using lattice units in orthogonal box = (49.81919 11.776254 63.383741) to (92.693735 53.242046 104.112)
  create_atoms CPU = 0.000 seconds
create_atoms 1 single 70.45869757559471 32.489 65.55316171919772
Created 1 atoms
  using lattice units in orthogonal box = (49.81919 11.776254 63.383741) to (92.693735 53.242046 104.112)
  create_atoms CPU = 0.000 seconds
create_atoms 1 single 70.7993363898309 30.0069 69.81513042979944
Created 1 atoms
  using lattice units in orthogonal box = (49.81919 11.776254 63.383741) to (92.693735 53.242046 104.112)
  create_atoms CPU = 0.000 seconds
create_atoms 1 single 74.0856235002676 28.8436 67.2678600573066
Created 1 atoms
  using lattice units in orthogonal box = (49.81919 11.776254 63.383741) to (92.693735 53.242046 104.112)
  create_atoms CPU = 0.000 seconds
create_atoms 3 single 74.91368359243147 31.442 67.47572664756447
Created 1 atoms
  using lattice units in orthogonal box = (49.81919 11.776254 63.383741) to (92.693735 53.242046 104.112)
  create_atoms CPU = 0.000 seconds
create_atoms 1 single 75.30718087168542 32.3367 70.02068515759314
Created 1 atoms
  using lattice units in orthogonal box = (49.81919 11.776254 63.383741) to (92.693735 53.242046 104.112)
  create_atoms CPU = 0.000 seconds
create_atoms 1 single 77.50137947780463 32.5005 68.2729171346705
Created 1 atoms
  using lattice units in orthogonal box = (49.81919 11.776254 63.383741) to (92.693735 53.242046 104.112)
  create_atoms CPU = 0.000 seconds
create_atoms 2 single 74.09684671847276 29.8326 69.8147283667622
Created 1 atoms
  using lattice units in orthogonal box = (49.81919 11.776254 63.383741) to (92.693735 53.242046 104.112)
  create_atoms CPU = 0.000 seconds
create_atoms 1 single 76.64147735699898 29.6944 69.24812103151862
Created 1 atoms
  using lattice units in orthogonal box = (49.81919 11.776254 63.383741) to (92.693735 53.242046 104.112)
  create_atoms CPU = 0.000 seconds
create_atoms 1 single 79.5986351015171 30.3197 69.48332790830946
Created 1 atoms
  using lattice units in orthogonal box = (49.81919 11.776254 63.383741) to (92.693735 53.242046 104.112)
  create_atoms CPU = 0.000 seconds
create_atoms 3 single 57.13902700210354 32.9 69.58193386819485
Created 1 atoms
  using lattice units in orthogonal box = (49.81919 11.776254 63.383741) to (92.693735 53.242046 104.112)
  create_atoms CPU = 0.000 seconds
create_atoms 3 single 58.07161527743916 34.5047 68.09148618911175
Created 1 atoms
  using lattice units in orthogonal box = (49.81919 11.776254 63.383741) to (92.693735 53.242046 104.112)
  create_atoms CPU = 0.000 seconds
create_atoms 1 single 57.363834037901654 35.5979 70.35630727793698
Created 1 atoms
  using lattice units in orthogonal box = (49.81919 11.776254 63.383741) to (92.693735 53.242046 104.112)
  create_atoms CPU = 0.000 seconds
create_atoms 1 single 60.52204744254196 34.2927 67.4343141547278
Created 1 atoms
  using lattice units in orthogonal box = (49.81919 11.776254 63.383741) to (92.693735 53.242046 104.112)
  create_atoms CPU = 0.000 seconds
create_atoms 1 single 62.14779955656541 36.9428 67.27268481375359
Created 1 atoms
  using lattice units in orthogonal box = (49.81919 11.776254 63.383741) to (92.693735 53.242046 104.112)
  create_atoms CPU = 0.000 seconds
create_atoms 1 single 59.75911843901495 36.8263 68.98376458452724
Created 1 atoms
  using lattice units in orthogonal box = (49.81919 11.776254 63.383741) to (92.693735 53.242046 104.112)
  create_atoms CPU = 0.000 seconds
create_atoms 4 single 62.46713826809029 35.5443 69.77613031518625
Created 1 atoms
  using lattice units in orthogonal box = (49.81919 11.776254 63.383741) to (92.693735 53.242046 104.112)
  create_atoms CPU = 0.000 seconds
create_atoms 1 single 59.996438498499984 33.861 70.29579679083096
Created 1 atoms
  using lattice units in orthogonal box = (49.81919 11.776254 63.383741) to (92.693735 53.242046 104.112)
  create_atoms CPU = 0.000 seconds
create_atoms 3 single 63.23332537638524 34.4115 67.48577822349571
Created 1 atoms
  using lattice units in orthogonal box = (49.81919 11.776254 63.383741) to (92.693735 53.242046 104.112)
  create_atoms CPU = 0.000 seconds
create_atoms 5 single 66.12285659843181 33.609 67.31912309455588
Created 1 atoms
  using lattice units in orthogonal box = (49.81919 11.776254 63.383741) to (92.693735 53.242046 104.112)
  create_atoms CPU = 0.000 seconds
create_atoms 3 single 67.28708278207102 35.731 66.12791083094557
Created 1 atoms
  using lattice units in orthogonal box = (49.81919 11.776254 63.383741) to (92.693735 53.242046 104.112)
  create_atoms CPU = 0.000 seconds
create_atoms 1 single 65.13104791121441 36.4067 67.53161340974214
Created 1 atoms
  using lattice units in orthogonal box = (49.81919 11.776254 63.383741) to (92.693735 53.242046 104.112)
  create_atoms CPU = 0.000 seconds
create_atoms 1 single 65.25097394930735 34.4112 69.7202435530086
Created 1 atoms
  using lattice units in orthogonal box = (49.81919 11.776254 63.383741) to (92.693735 53.242046 104.112)
  create_atoms CPU = 0.000 seconds
create_atoms 3 single 67.98696421703633 36.0126 68.57908813753582
Created 1 atoms
  using lattice units in orthogonal box = (49.81919 11.776254 63.383741) to (92.693735 53.242046 104.112)
  create_atoms CPU = 0.000 seconds
create_atoms 1 single 68.38025058698375 34.0574 70.38193879656161
Created 1 atoms
  using lattice units in orthogonal box = (49.81919 11.776254 63.383741) to (92.693735 53.242046 104.112)
  create_atoms CPU = 0.000 seconds
create_atoms 1 single 66.93003779227868 36.9394 70.5352253295129
Created 1 atoms
  using lattice units in orthogonal box = (49.81919 11.776254 63.383741) to (92.693735 53.242046 104.112)
  create_atoms CPU = 0.000 seconds
create_atoms 1 single 69.10202572806806 33.8973 67.53734280802293
Created 1 atoms
  using lattice units in orthogonal box = (49.81919 11.776254 63.383741) to (92.693735 53.242046 104.112)
  create_atoms CPU = 0.000 seconds
create_atoms 3 single 69.82792022955526 35.0784 65.38781329512895
Created 1 atoms
  using lattice units in orthogonal box = (49.81919 11.776254 63.383741) to (92.693735 53.242046 104.112)
  create_atoms CPU = 0.000 seconds
create_atoms 5 single 69.80970718659259 36.9131 67.16241902578798
Created 1 atoms
  using lattice units in orthogonal box = (49.81919 11.776254 63.383741) to (92.693735 53.242046 104.112)
  create_atoms CPU = 0.000 seconds
create_atoms 1 single 70.87230645895382 35.6846 69.97103037249283
Created 1 atoms
  using lattice units in orthogonal box = (49.81919 11.776254 63.383741) to (92.693735 53.242046 104.112)
  create_atoms CPU = 0.000 seconds
create_atoms 1 single 72.01040577415 34.4884 67.64127610315188
Created 1 atoms
  using lattice units in orthogonal box = (49.81919 11.776254 63.383741) to (92.693735 53.242046 104.112)
  create_atoms CPU = 0.000 seconds
create_atoms 2 single 70.85257653164629 32.8376 69.69873318051576
Created 1 atoms
  using lattice units in orthogonal box = (49.81919 11.776254 63.383741) to (92.693735 53.242046 104.112)
  create_atoms CPU = 0.000 seconds
create_atoms 2 single 73.25144495363342 34.0087 70.32766028653296
Created 1 atoms
  using lattice units in orthogonal box = (49.81919 11.776254 63.383741) to (92.693735 53.242046 104.112)
  create_atoms CPU = 0.000 seconds
create_atoms 4 single 73.33965625959948 32.9591 65.72604882521492
Created 1 atoms
  using lattice units in orthogonal box = (49.81919 11.776254 63.383741) to (92.693735 53.242046 104.112)
  create_atoms CPU = 0.000 seconds
create_atoms 4 single 73.72094730841833 36.4717 69.44392573065903
Created 1 atoms
  using lattice units in orthogonal box = (49.81919 11.776254 63.383741) to (92.693735 53.242046 104.112)
  create_atoms CPU = 0.000 seconds
create_atoms 1 single 75.11682513740855 34.4376 67.99378487106019
Created 1 atoms
  using lattice units in orthogonal box = (49.81919 11.776254 63.383741) to (92.693735 53.242046 104.112)
  create_atoms CPU = 0.000 seconds
create_atoms 4 single 72.74278125192488 36.8795 66.64667266475645
Created 1 atoms
  using lattice units in orthogonal box = (49.81919 11.776254 63.383741) to (92.693735 53.242046 104.112)
  create_atoms CPU = 0.000 seconds
create_atoms 4 single 75.86960623782504 37.1889 68.33805134670487
Created 1 atoms
  using lattice units in orthogonal box = (49.81919 11.776254 63.383741) to (92.693735 53.242046 104.112)
  create_atoms CPU = 0.000 seconds
create_atoms 3 single 80.16779402021506 33.0041 69.66204492836677
Created 1 atoms
  using lattice units in orthogonal box = (49.81919 11.776254 63.383741) to (92.693735 53.242046 104.112)
  create_atoms CPU = 0.000 seconds
create_atoms 1 single 78.43787852689532 35.2541 69.70546773638969
Created 1 atoms
  using lattice units in orthogonal box = (49.81919 11.776254 63.383741) to (92.693735 53.242046 104.112)
  create_atoms CPU = 0.000 seconds
create_atoms 1 single 61.73355705496768 39.2666 68.87229260744986
Created 1 atoms
  using lattice units in orthogonal box = (49.81919 11.776254 63.383741) to (92.693735 53.242046 104.112)
  create_atoms CPU = 0.000 seconds
create_atoms 4 single 60.01179508240267 41.518 68.96034441260745
Created 1 atoms
  using lattice units in orthogonal box = (49.81919 11.776254 63.383741) to (92.693735 53.242046 104.112)
  create_atoms CPU = 0.000 seconds
create_atoms 2 single 64.19704859744606 37.6146 69.6900888252149
Created 1 atoms
  using lattice units in orthogonal box = (49.81919 11.776254 63.383741) to (92.693735 53.242046 104.112)
  create_atoms CPU = 0.000 seconds
create_atoms 1 single 64.38755929347688 39.6146 67.85718395415473
Created 1 atoms
  using lattice units in orthogonal box = (49.81919 11.776254 63.383741) to (92.693735 53.242046 104.112)
  create_atoms CPU = 0.000 seconds
create_atoms 1 single 67.0836568338389 38.3994 67.2393135816619
Created 1 atoms
  using lattice units in orthogonal box = (49.81919 11.776254 63.383741) to (92.693735 53.242046 104.112)
  create_atoms CPU = 0.000 seconds
create_atoms 2 single 67.79477408057531 40.9035 68.05318968481376
Created 1 atoms
  using lattice units in orthogonal box = (49.81919 11.776254 63.383741) to (92.693735 53.242046 104.112)
  create_atoms CPU = 0.000 seconds
create_atoms 1 single 66.69347206747838 39.8878 70.18744080229227
Created 1 atoms
  using lattice units in orthogonal box = (49.81919 11.776254 63.383741) to (92.693735 53.242046 104.112)
  create_atoms CPU = 0.000 seconds
create_atoms 3 single 64.11034671276143 40.1009 70.49984378223496
Created 1 atoms
  using lattice units in orthogonal box = (49.81919 11.776254 63.383741) to (92.693735 53.242046 104.112)
  create_atoms CPU = 0.000 seconds
create_atoms 1 single 70.67498053213917 41.1145 68.51325031518626
Created 1 atoms
  using lattice units in orthogonal box = (49.81919 11.776254 63.383741) to (92.693735 53.242046 104.112)
  create_atoms CPU = 0.000 seconds
create_atoms 1 single 69.34328028887899 38.3763 69.5350935243553
Created 1 atoms
  using lattice units in orthogonal box = (49.81919 11.776254 63.383741) to (92.693735 53.242046 104.112)
  create_atoms CPU = 0.000 seconds
create_atoms 4 single 71.94531902753269 38.4419 68.78424080229226
Created 1 atoms
  using lattice units in orthogonal box = (49.81919 11.776254 63.383741) to (92.693735 53.242046 104.112)
  create_atoms CPU = 0.000 seconds
create_atoms 3 single 69.3240490611211 40.8127 70.38686406876792
Created 1 atoms
  using lattice units in orthogonal box = (49.81919 11.776254 63.383741) to (92.693735 53.242046 104.112)
  create_atoms CPU = 0.000 seconds
create_atoms 4 single 73.65213452156634 40.5161 68.65517856733524
Created 1 atoms
  using lattice units in orthogonal box = (49.81919 11.776254 63.383741) to (92.693735 53.242046 104.112)
  create_atoms CPU = 0.000 seconds
create_atoms 4 single 76.4512615020016 40.5283 70.4389312320917
Created 1 atoms
  using lattice units in orthogonal box = (49.81919 11.776254 63.383741) to (92.693735 53.242046 104.112)
  create_atoms CPU = 0.000 seconds
create_atoms 1 single 62.89193099617116 42.173 69.1672058452722
Created 1 atoms
  using lattice units in orthogonal box = (49.81919 11.776254 63.383741) to (92.693735 53.242046 104.112)
  create_atoms CPU = 0.000 seconds
create_atoms 1 single 65.83019872193181 42.485 68.836609512894
Created 1 atoms
  using lattice units in orthogonal box = (49.81919 11.776254 63.383741) to (92.693735 53.242046 104.112)
  create_atoms CPU = 0.000 seconds
create_atoms 4 single 64.31491573111937 44.708 69.98721340974214
Created 1 atoms
  using lattice units in orthogonal box = (49.81919 11.776254 63.383741) to (92.693735 53.242046 104.112)
  create_atoms CPU = 0.000 seconds
create_atoms 4 single 71.70258980216299 43.9133 68.78635163323784
Created 1 atoms
  using lattice units in orthogonal box = (49.81919 11.776254 63.383741) to (92.693735 53.242046 104.112)
  create_atoms CPU = 0.000 seconds
create_atoms 1 single 68.82797700460225 43.2971 69.2821958739255
Created 1 atoms
  using lattice units in orthogonal box = (49.81919 11.776254 63.383741) to (92.693735 53.242046 104.112)
  create_atoms CPU = 0.000 seconds
create_atoms 5 single 70.04831490862236 45.8603 70.09526785100287
Created 1 atoms
  using lattice units in orthogonal box = (49.81919 11.776254 63.383741) to (92.693735 53.242046 104.112)
  create_atoms CPU = 0.000 seconds
create_atoms 1 single 63.28294279855979 17.934 75.41355667621778
Created 1 atoms
  using lattice units in orthogonal box = (49.81919 11.776254 63.383741) to (92.693735 53.242046 104.112)
  create_atoms CPU = 0.000 seconds
create_atoms 1 single 65.7086468011944 18.05 73.97115553008597
Created 1 atoms
  using lattice units in orthogonal box = (49.81919 11.776254 63.383741) to (92.693735 53.242046 104.112)
  create_atoms CPU = 0.000 seconds
create_atoms 5 single 68.72606474487121 15.9112 75.65891564469915
Created 1 atoms
  using lattice units in orthogonal box = (49.81919 11.776254 63.383741) to (92.693735 53.242046 104.112)
  create_atoms CPU = 0.000 seconds
create_atoms 1 single 70.39620536678171 17.7618 74.26958681948425
Created 1 atoms
  using lattice units in orthogonal box = (49.81919 11.776254 63.383741) to (92.693735 53.242046 104.112)
  create_atoms CPU = 0.000 seconds
create_atoms 3 single 73.02907237632623 16.8354 75.37737100286535
Created 1 atoms
  using lattice units in orthogonal box = (49.81919 11.776254 63.383741) to (92.693735 53.242046 104.112)
  create_atoms CPU = 0.000 seconds
create_atoms 1 single 58.66277343994168 22.0087 74.50439163323783
Created 1 atoms
  using lattice units in orthogonal box = (49.81919 11.776254 63.383741) to (92.693735 53.242046 104.112)
  create_atoms CPU = 0.000 seconds
create_atoms 2 single 56.271397377932544 22.6945 75.18468229226362
Created 1 atoms
  using lattice units in orthogonal box = (49.81919 11.776254 63.383741) to (92.693735 53.242046 104.112)
  create_atoms CPU = 0.000 seconds
create_atoms 1 single 60.56582756492031 21.7356 72.4654294555874
Created 1 atoms
  using lattice units in orthogonal box = (49.81919 11.776254 63.383741) to (92.693735 53.242046 104.112)
  create_atoms CPU = 0.000 seconds
create_atoms 1 single 61.120500080116784 19.9967 74.8663488825215
Created 1 atoms
  using lattice units in orthogonal box = (49.81919 11.776254 63.383741) to (92.693735 53.242046 104.112)
  create_atoms CPU = 0.000 seconds
create_atoms 5 single 63.644933069858354 20.4214 73.8442041260745
Created 1 atoms
  using lattice units in orthogonal box = (49.81919 11.776254 63.383741) to (92.693735 53.242046 104.112)
  create_atoms CPU = 0.000 seconds
create_atoms 3 single 62.43083318113665 22.6288 74.5750542120344
Created 1 atoms
  using lattice units in orthogonal box = (49.81919 11.776254 63.383741) to (92.693735 53.242046 104.112)
  create_atoms CPU = 0.000 seconds
create_atoms 1 single 63.76289540624275 22.9539 72.35184664756447
Created 1 atoms
  using lattice units in orthogonal box = (49.81919 11.776254 63.383741) to (92.693735 53.242046 104.112)
  create_atoms CPU = 0.000 seconds
create_atoms 1 single 68.02657767941123 19.3301 72.81090212034384
Created 1 atoms
  using lattice units in orthogonal box = (49.81919 11.776254 63.383741) to (92.693735 53.242046 104.112)
  create_atoms CPU = 0.000 seconds
create_atoms 1 single 64.96898214929047 19.9971 71.63707908309456
Created 1 atoms
  using lattice units in orthogonal box = (49.81919 11.776254 63.383741) to (92.693735 53.242046 104.112)
  create_atoms CPU = 0.000 seconds
create_atoms 2 single 66.6912483242014 20.7874 74.30878796561605
Created 1 atoms
  using lattice units in orthogonal box = (49.81919 11.776254 63.383741) to (92.693735 53.242046 104.112)
  create_atoms CPU = 0.000 seconds
create_atoms 2 single 66.43760503151897 22.3058 72.24831541547279
Created 1 atoms
  using lattice units in orthogonal box = (49.81919 11.776254 63.383741) to (92.693735 53.242046 104.112)
  create_atoms CPU = 0.000 seconds
create_atoms 5 single 68.26222389826235 18.6686 75.84346257879658
Created 1 atoms
  using lattice units in orthogonal box = (49.81919 11.776254 63.383741) to (92.693735 53.242046 104.112)
  create_atoms CPU = 0.000 seconds
create_atoms 1 single 65.40220782285012 22.7188 75.31565432664758
Created 1 atoms
  using lattice units in orthogonal box = (49.81919 11.776254 63.383741) to (92.693735 53.242046 104.112)
  create_atoms CPU = 0.000 seconds
create_atoms 1 single 74.0440145248133 18.5959 73.89747747851004
Created 1 atoms
  using lattice units in orthogonal box = (49.81919 11.776254 63.383741) to (92.693735 53.242046 104.112)
  create_atoms CPU = 0.000 seconds
create_atoms 2 single 69.9972456505738 19.4792 71.20154429799429
Created 1 atoms
  using lattice units in orthogonal box = (49.81919 11.776254 63.383741) to (92.693735 53.242046 104.112)
  create_atoms CPU = 0.000 seconds
create_atoms 1 single 69.20329376410439 22.1065 72.22539782234958
Created 1 atoms
  using lattice units in orthogonal box = (49.81919 11.776254 63.383741) to (92.693735 53.242046 104.112)
  create_atoms CPU = 0.000 seconds
create_atoms 1 single 71.60478307235705 20.3976 73.54446613180517
Created 1 atoms
  using lattice units in orthogonal box = (49.81919 11.776254 63.383741) to (92.693735 53.242046 104.112)
  create_atoms CPU = 0.000 seconds
create_atoms 1 single 72.29854528961008 22.8702 72.26329226361032
Created 1 atoms
  using lattice units in orthogonal box = (49.81919 11.776254 63.383741) to (92.693735 53.242046 104.112)
  create_atoms CPU = 0.000 seconds
create_atoms 2 single 70.96365372143072 23.0287 74.5285154154728
Created 1 atoms
  using lattice units in orthogonal box = (49.81919 11.776254 63.383741) to (92.693735 53.242046 104.112)
  create_atoms CPU = 0.000 seconds
create_atoms 1 single 72.82742593206285 19.9938 71.22566808022924
Created 1 atoms
  using lattice units in orthogonal box = (49.81919 11.776254 63.383741) to (92.693735 53.242046 104.112)
  create_atoms CPU = 0.000 seconds
create_atoms 5 single 69.6870082936643 20.8222 75.1560353008596
Created 1 atoms
  using lattice units in orthogonal box = (49.81919 11.776254 63.383741) to (92.693735 53.242046 104.112)
  create_atoms CPU = 0.000 seconds
create_atoms 2 single 73.17701873572621 22.0194 75.62956504297995
Created 1 atoms
  using lattice units in orthogonal box = (49.81919 11.776254 63.383741) to (92.693735 53.242046 104.112)
  create_atoms CPU = 0.000 seconds
create_atoms 3 single 75.40844329864456 21.0259 71.74272114613181
Created 1 atoms
  using lattice units in orthogonal box = (49.81919 11.776254 63.383741) to (92.693735 53.242046 104.112)
  create_atoms CPU = 0.000 seconds
create_atoms 2 single 74.30115443264944 21.2871 73.68961088825215
Created 1 atoms
  using lattice units in orthogonal box = (49.81919 11.776254 63.383741) to (92.693735 53.242046 104.112)
  create_atoms CPU = 0.000 seconds
create_atoms 1 single 76.83257402845943 20.1369 74.30486785100287
Created 1 atoms
  using lattice units in orthogonal box = (49.81919 11.776254 63.383741) to (92.693735 53.242046 104.112)
  create_atoms CPU = 0.000 seconds
create_atoms 1 single 77.45981863801232 22.7423 73.27156584527222
Created 1 atoms
  using lattice units in orthogonal box = (49.81919 11.776254 63.383741) to (92.693735 53.242046 104.112)
  create_atoms CPU = 0.000 seconds
create_atoms 1 single 79.88231662420148 21.2443 75.49145638968483
Created 1 atoms
  using lattice units in orthogonal box = (49.81919 11.776254 63.383741) to (92.693735 53.242046 104.112)
  create_atoms CPU = 0.000 seconds
create_atoms 1 single 55.32549314845782 25.2041 75.67921982808024
Created 1 atoms
  using lattice units in orthogonal box = (49.81919 11.776254 63.383741) to (92.693735 53.242046 104.112)
  create_atoms CPU = 0.000 seconds
create_atoms 3 single 58.61464505420298 23.7467 72.34310177650431
Created 1 atoms
  using lattice units in orthogonal box = (49.81919 11.776254 63.383741) to (92.693735 53.242046 104.112)
  create_atoms CPU = 0.000 seconds
create_atoms 1 single 56.807365014546285 27.3289 71.46841363896849
Created 1 atoms
  using lattice units in orthogonal box = (49.81919 11.776254 63.383741) to (92.693735 53.242046 104.112)
  create_atoms CPU = 0.000 seconds
create_atoms 3 single 59.26626688138302 26.282 72.79964435530087
Created 1 atoms
  using lattice units in orthogonal box = (49.81919 11.776254 63.383741) to (92.693735 53.242046 104.112)
  create_atoms CPU = 0.000 seconds
create_atoms 1 single 57.35246088564112 25.1504 73.97839266475646
Created 1 atoms
  using lattice units in orthogonal box = (49.81919 11.776254 63.383741) to (92.693735 53.242046 104.112)
  create_atoms CPU = 0.000 seconds
create_atoms 2 single 55.569755715965826 27.7255 74.62088939828081
Created 1 atoms
  using lattice units in orthogonal box = (49.81919 11.776254 63.383741) to (92.693735 53.242046 104.112)
  create_atoms CPU = 0.000 seconds
create_atoms 1 single 61.102621817436 24.5726 72.02285856733525
Created 1 atoms
  using lattice units in orthogonal box = (49.81919 11.776254 63.383741) to (92.693735 53.242046 104.112)
  create_atoms CPU = 0.000 seconds
create_atoms 3 single 61.588138939329696 26.8478 73.73303369627507
Created 1 atoms
  using lattice units in orthogonal box = (49.81919 11.776254 63.383741) to (92.693735 53.242046 104.112)
  create_atoms CPU = 0.000 seconds
create_atoms 2 single 60.91169213267475 26.9772 70.8143575931232
Created 1 atoms
  using lattice units in orthogonal box = (49.81919 11.776254 63.383741) to (92.693735 53.242046 104.112)
  create_atoms CPU = 0.000 seconds
create_atoms 3 single 63.2711368427972 25.8339 71.79649707736391
Created 1 atoms
  using lattice units in orthogonal box = (49.81919 11.776254 63.383741) to (92.693735 53.242046 104.112)
  create_atoms CPU = 0.000 seconds
create_atoms 1 single 63.50768682102276 25.1125 74.40849959885388
Created 1 atoms
  using lattice units in orthogonal box = (49.81919 11.776254 63.383741) to (92.693735 53.242046 104.112)
  create_atoms CPU = 0.000 seconds
create_atoms 1 single 60.56203435317474 24.4741 74.77548263610316
Created 1 atoms
  using lattice units in orthogonal box = (49.81919 11.776254 63.383741) to (92.693735 53.242046 104.112)
  create_atoms CPU = 0.000 seconds
create_atoms 3 single 65.82401006921239 24.5188 73.35851197707737
Created 1 atoms
  using lattice units in orthogonal box = (49.81919 11.776254 63.383741) to (92.693735 53.242046 104.112)
  create_atoms CPU = 0.000 seconds
create_atoms 1 single 65.37535175759402 25.2687 70.75364607449858
Created 1 atoms
  using lattice units in orthogonal box = (49.81919 11.776254 63.383741) to (92.693735 53.242046 104.112)
  create_atoms CPU = 0.000 seconds
create_atoms 3 single 67.76899799143736 24.3263 71.98777856733524
Created 1 atoms
  using lattice units in orthogonal box = (49.81919 11.776254 63.383741) to (92.693735 53.242046 104.112)
  create_atoms CPU = 0.000 seconds
create_atoms 3 single 65.07550877804292 26.8381 73.3692671633238
Created 1 atoms
  using lattice units in orthogonal box = (49.81919 11.776254 63.383741) to (92.693735 53.242046 104.112)
  create_atoms CPU = 0.000 seconds
create_atoms 1 single 67.77079610032747 26.4296 73.56828836676219
Created 1 atoms
  using lattice units in orthogonal box = (49.81919 11.776254 63.383741) to (92.693735 53.242046 104.112)
  create_atoms CPU = 0.000 seconds
create_atoms 1 single 68.224701373428 23.451 74.5986754154728
Created 1 atoms
  using lattice units in orthogonal box = (49.81919 11.776254 63.383741) to (92.693735 53.242046 104.112)
  create_atoms CPU = 0.000 seconds
create_atoms 1 single 66.33157143327 25.8281 75.86788790830947
Created 1 atoms
  using lattice units in orthogonal box = (49.81919 11.776254 63.383741) to (92.693735 53.242046 104.112)
  create_atoms CPU = 0.000 seconds
create_atoms 1 single 70.3879226342217 25.0833 72.5999195415473
Created 1 atoms
  using lattice units in orthogonal box = (49.81919 11.776254 63.383741) to (92.693735 53.242046 104.112)
  create_atoms CPU = 0.000 seconds
create_atoms 3 single 69.95103542178761 27.7309 73.30302727793698
Created 1 atoms
  using lattice units in orthogonal box = (49.81919 11.776254 63.383741) to (92.693735 53.242046 104.112)
  create_atoms CPU = 0.000 seconds
create_atoms 1 single 71.138030744344 27.4795 71.21672217765044
Created 1 atoms
  using lattice units in orthogonal box = (49.81919 11.776254 63.383741) to (92.693735 53.242046 104.112)
  create_atoms CPU = 0.000 seconds
create_atoms 4 single 72.93477942497483 24.7222 74.61023472779371
Created 1 atoms
  using lattice units in orthogonal box = (49.81919 11.776254 63.383741) to (92.693735 53.242046 104.112)
  create_atoms CPU = 0.000 seconds
create_atoms 1 single 72.70226816041591 27.7928 74.24475942693411
Created 1 atoms
  using lattice units in orthogonal box = (49.81919 11.776254 63.383741) to (92.693735 53.242046 104.112)
  create_atoms CPU = 0.000 seconds
create_atoms 1 single 70.65164948838641 25.7129 75.45125008595988
Created 1 atoms
  using lattice units in orthogonal box = (49.81919 11.776254 63.383741) to (92.693735 53.242046 104.112)
  create_atoms CPU = 0.000 seconds
create_atoms 3 single 74.82180796696856 23.4049 72.10709077363897
Created 1 atoms
  using lattice units in orthogonal box = (49.81919 11.776254 63.383741) to (92.693735 53.242046 104.112)
  create_atoms CPU = 0.000 seconds
create_atoms 3 single 75.25528039658772 25.257 70.69414074498569
Created 1 atoms
  using lattice units in orthogonal box = (49.81919 11.776254 63.383741) to (92.693735 53.242046 104.112)
  create_atoms CPU = 0.000 seconds
create_atoms 1 single 73.8527964612912 25.9443 72.50654040114614
Created 1 atoms
  using lattice units in orthogonal box = (49.81919 11.776254 63.383741) to (92.693735 53.242046 104.112)
  create_atoms CPU = 0.000 seconds
create_atoms 1 single 78.0768154835757 25.0596 71.52289318051577
Created 1 atoms
  using lattice units in orthogonal box = (49.81919 11.776254 63.383741) to (92.693735 53.242046 104.112)
  create_atoms CPU = 0.000 seconds
create_atoms 3 single 76.4420855391342 25.273 73.30594223495703
Created 1 atoms
  using lattice units in orthogonal box = (49.81919 11.776254 63.383741) to (92.693735 53.242046 104.112)
  create_atoms CPU = 0.000 seconds
create_atoms 1 single 78.47105208428977 27.0822 73.80259060171922
Created 1 atoms
  using lattice units in orthogonal box = (49.81919 11.776254 63.383741) to (92.693735 53.242046 104.112)
  create_atoms CPU = 0.000 seconds
create_atoms 1 single 76.20146067236543 27.7192 71.40337994269342
Created 1 atoms
  using lattice units in orthogonal box = (49.81919 11.776254 63.383741) to (92.693735 53.242046 104.112)
  create_atoms CPU = 0.000 seconds
create_atoms 1 single 75.40087097173671 23.4613 74.91419438395415
Created 1 atoms
  using lattice units in orthogonal box = (49.81919 11.776254 63.383741) to (92.693735 53.242046 104.112)
  create_atoms CPU = 0.000 seconds
create_atoms 4 single 75.25024467396351 26.2592 75.71711426934098
Created 1 atoms
  using lattice units in orthogonal box = (49.81919 11.776254 63.383741) to (92.693735 53.242046 104.112)
  create_atoms CPU = 0.000 seconds
create_atoms 2 single 77.92039443962729 24.9957 75.66846464183381
Created 1 atoms
  using lattice units in orthogonal box = (49.81919 11.776254 63.383741) to (92.693735 53.242046 104.112)
  create_atoms CPU = 0.000 seconds
create_atoms 1 single 81.12645268208841 25.9917 72.48975426934099
Created 1 atoms
  using lattice units in orthogonal box = (49.81919 11.776254 63.383741) to (92.693735 53.242046 104.112)
  create_atoms CPU = 0.000 seconds
create_atoms 3 single 83.32770736345857 27.2209 74.10504252148998
Created 1 atoms
  using lattice units in orthogonal box = (49.81919 11.776254 63.383741) to (92.693735 53.242046 104.112)
  create_atoms CPU = 0.000 seconds
create_atoms 1 single 80.09064351049241 24.2282 74.48901272206305
Created 1 atoms
  using lattice units in orthogonal box = (49.81919 11.776254 63.383741) to (92.693735 53.242046 104.112)
  create_atoms CPU = 0.000 seconds
create_atoms 3 single 81.01638223843737 26.7492 75.02275140401147
Created 1 atoms
  using lattice units in orthogonal box = (49.81919 11.776254 63.383741) to (92.693735 53.242046 104.112)
  create_atoms CPU = 0.000 seconds
create_atoms 3 single 54.62885255367613 32.4373 73.81425042979944
Created 1 atoms
  using lattice units in orthogonal box = (49.81919 11.776254 63.383741) to (92.693735 53.242046 104.112)
  create_atoms CPU = 0.000 seconds
create_atoms 1 single 53.89024444569557 29.8925 74.94052951289399
Created 1 atoms
  using lattice units in orthogonal box = (49.81919 11.776254 63.383741) to (92.693735 53.242046 104.112)
  create_atoms CPU = 0.000 seconds
create_atoms 1 single 54.860081439499595 29.3094 72.304704756447
Created 1 atoms
  using lattice units in orthogonal box = (49.81919 11.776254 63.383741) to (92.693735 53.242046 104.112)
  create_atoms CPU = 0.000 seconds
create_atoms 3 single 57.48374998418768 29.8032 72.29425111747851
Created 1 atoms
  using lattice units in orthogonal box = (49.81919 11.776254 63.383741) to (92.693735 53.242046 104.112)
  create_atoms CPU = 0.000 seconds
create_atoms 1 single 56.01074717215296 32.0019 71.71045558739256
Created 1 atoms
  using lattice units in orthogonal box = (49.81919 11.776254 63.383741) to (92.693735 53.242046 104.112)
  create_atoms CPU = 0.000 seconds
create_atoms 1 single 59.37636698909174 31.2632 73.95869157593124
Created 1 atoms
  using lattice units in orthogonal box = (49.81919 11.776254 63.383741) to (92.693735 53.242046 104.112)
  create_atoms CPU = 0.000 seconds
create_atoms 1 single 58.14858365302173 28.0621 74.28697604584528
Created 1 atoms
  using lattice units in orthogonal box = (49.81919 11.776254 63.383741) to (92.693735 53.242046 104.112)
  create_atoms CPU = 0.000 seconds
create_atoms 5 single 58.89969389180276 31.2569 70.98654108882522
Created 1 atoms
  using lattice units in orthogonal box = (49.81919 11.776254 63.383741) to (92.693735 53.242046 104.112)
  create_atoms CPU = 0.000 seconds
create_atoms 1 single 56.68306475343821 30.5729 74.63124252148998
Created 1 atoms
  using lattice units in orthogonal box = (49.81919 11.776254 63.383741) to (92.693735 53.242046 104.112)
  create_atoms CPU = 0.000 seconds
create_atoms 1 single 60.01130855191673 28.8323 72.33576412607451
Created 1 atoms
  using lattice units in orthogonal box = (49.81919 11.776254 63.383741) to (92.693735 53.242046 104.112)
  create_atoms CPU = 0.000 seconds
create_atoms 1 single 62.98493390377803 28.4603 72.36591885386821
Created 1 atoms
  using lattice units in orthogonal box = (49.81919 11.776254 63.383741) to (92.693735 53.242046 104.112)
  create_atoms CPU = 0.000 seconds
create_atoms 1 single 61.81612674670678 31.7461 72.05964733524355
Created 1 atoms
  using lattice units in orthogonal box = (49.81919 11.776254 63.383741) to (92.693735 53.242046 104.112)
  create_atoms CPU = 0.000 seconds
create_atoms 2 single 62.63972250295373 30.3388 74.26697340974214
Created 1 atoms
  using lattice units in orthogonal box = (49.81919 11.776254 63.383741) to (92.693735 53.242046 104.112)
  create_atoms CPU = 0.000 seconds
create_atoms 1 single 61.063584700217106 28.7284 75.38370349570201
Created 1 atoms
  using lattice units in orthogonal box = (49.81919 11.776254 63.383741) to (92.693735 53.242046 104.112)
  create_atoms CPU = 0.000 seconds
create_atoms 1 single 64.05507566274473 28.03 75.37335037249284
Created 1 atoms
  using lattice units in orthogonal box = (49.81919 11.776254 63.383741) to (92.693735 53.242046 104.112)
  create_atoms CPU = 0.000 seconds
create_atoms 1 single 65.92701337062313 28.2813 71.55606338108883
Created 1 atoms
  using lattice units in orthogonal box = (49.81919 11.776254 63.383741) to (92.693735 53.242046 104.112)
  create_atoms CPU = 0.000 seconds
create_atoms 1 single 68.28873142914782 29.7485 73.54647644699142
Created 1 atoms
  using lattice units in orthogonal box = (49.81919 11.776254 63.383741) to (92.693735 53.242046 104.112)
  create_atoms CPU = 0.000 seconds
create_atoms 1 single 65.06270349708932 30.4717 73.28091381088826
Created 1 atoms
  using lattice units in orthogonal box = (49.81919 11.776254 63.383741) to (92.693735 53.242046 104.112)
  create_atoms CPU = 0.000 seconds
create_atoms 1 single 66.94167816022026 31.6804 71.45233111747852
Created 1 atoms
  using lattice units in orthogonal box = (49.81919 11.776254 63.383741) to (92.693735 53.242046 104.112)
  create_atoms CPU = 0.000 seconds
create_atoms 3 single 68.73915820987177 29.2901 71.12806727793696
Created 1 atoms
  using lattice units in orthogonal box = (49.81919 11.776254 63.383741) to (92.693735 53.242046 104.112)
  create_atoms CPU = 0.000 seconds
create_atoms 3 single 66.46069303932126 28.5236 74.69145146131807
Created 1 atoms
  using lattice units in orthogonal box = (49.81919 11.776254 63.383741) to (92.693735 53.242046 104.112)
  create_atoms CPU = 0.000 seconds
create_atoms 1 single 71.26545197301145 30.1687 73.07174051575932
Created 1 atoms
  using lattice units in orthogonal box = (49.81919 11.776254 63.383741) to (92.693735 53.242046 104.112)
  create_atoms CPU = 0.000 seconds
create_atoms 2 single 69.66980621212406 31.7304 71.42107071633238
Created 1 atoms
  using lattice units in orthogonal box = (49.81919 11.776254 63.383741) to (92.693735 53.242046 104.112)
  create_atoms CPU = 0.000 seconds
create_atoms 2 single 73.5943302692463 28.7511 71.89017776504299
Created 1 atoms
  using lattice units in orthogonal box = (49.81919 11.776254 63.383741) to (92.693735 53.242046 104.112)
  create_atoms CPU = 0.000 seconds
create_atoms 1 single 73.0033556253911 31.4629 71.4064959312321
Created 1 atoms
  using lattice units in orthogonal box = (49.81919 11.776254 63.383741) to (92.693735 53.242046 104.112)
  create_atoms CPU = 0.000 seconds
create_atoms 2 single 70.93773481613586 29.0433 75.55789730659026
Created 1 atoms
  using lattice units in orthogonal box = (49.81919 11.776254 63.383741) to (92.693735 53.242046 104.112)
  create_atoms CPU = 0.000 seconds
create_atoms 1 single 70.20516345798524 31.7444 75.15583426934099
Created 1 atoms
  using lattice units in orthogonal box = (49.81919 11.776254 63.383741) to (92.693735 53.242046 104.112)
  create_atoms CPU = 0.000 seconds
create_atoms 1 single 73.12332777748209 32.2361 75.12608160458454
Created 1 atoms
  using lattice units in orthogonal box = (49.81919 11.776254 63.383741) to (92.693735 53.242046 104.112)
  create_atoms CPU = 0.000 seconds
create_atoms 2 single 74.17955184888265 30.3021 73.88240011461319
Created 1 atoms
  using lattice units in orthogonal box = (49.81919 11.776254 63.383741) to (92.693735 53.242046 104.112)
  create_atoms CPU = 0.000 seconds
create_atoms 4 single 75.64998799805825 27.9816 74.00945203438397
Created 1 atoms
  using lattice units in orthogonal box = (49.81919 11.776254 63.383741) to (92.693735 53.242046 104.112)
  create_atoms CPU = 0.000 seconds
create_atoms 1 single 76.11774470180625 30.5669 72.37717661891118
Created 1 atoms
  using lattice units in orthogonal box = (49.81919 11.776254 63.383741) to (92.693735 53.242046 104.112)
  create_atoms CPU = 0.000 seconds
create_atoms 4 single 77.5604239054015 29.5857 74.9870683094556
Created 1 atoms
  using lattice units in orthogonal box = (49.81919 11.776254 63.383741) to (92.693735 53.242046 104.112)
  create_atoms CPU = 0.000 seconds
create_atoms 1 single 76.2693674449137 31.8934 75.59750051575932
Created 1 atoms
  using lattice units in orthogonal box = (49.81919 11.776254 63.383741) to (92.693735 53.242046 104.112)
  create_atoms CPU = 0.000 seconds
create_atoms 3 single 81.71109436047522 28.7364 71.08384034383955
Created 1 atoms
  using lattice units in orthogonal box = (49.81919 11.776254 63.383741) to (92.693735 53.242046 104.112)
  create_atoms CPU = 0.000 seconds
create_atoms 2 single 78.4614489327088 29.7667 71.71136022922637
Created 1 atoms
  using lattice units in orthogonal box = (49.81919 11.776254 63.383741) to (92.693735 53.242046 104.112)
  create_atoms CPU = 0.000 seconds
create_atoms 4 single 79.24246370338716 30.9942 73.87707277936964
Created 1 atoms
  using lattice units in orthogonal box = (49.81919 11.776254 63.383741) to (92.693735 53.242046 104.112)
  create_atoms CPU = 0.000 seconds
create_atoms 1 single 80.85482380197628 28.7846 73.31418452722065
Created 1 atoms
  using lattice units in orthogonal box = (49.81919 11.776254 63.383741) to (92.693735 53.242046 104.112)
  create_atoms CPU = 0.000 seconds
create_atoms 1 single 81.23704083186742 31.4192 71.98124504297996
Created 1 atoms
  using lattice units in orthogonal box = (49.81919 11.776254 63.383741) to (92.693735 53.242046 104.112)
  create_atoms CPU = 0.000 seconds
create_atoms 4 single 80.16561603425589 29.0669 75.86225902578798
Created 1 atoms
  using lattice units in orthogonal box = (49.81919 11.776254 63.383741) to (92.693735 53.242046 104.112)
  create_atoms CPU = 0.000 seconds
create_atoms 3 single 81.83688834260192 30.9857 74.91741088825216
Created 1 atoms
  using lattice units in orthogonal box = (49.81919 11.776254 63.383741) to (92.693735 53.242046 104.112)
  create_atoms CPU = 0.000 seconds
create_atoms 1 single 83.67568025461102 29.8751 73.64578601719198
Created 1 atoms
  using lattice units in orthogonal box = (49.81919 11.776254 63.383741) to (92.693735 53.242046 104.112)
  create_atoms CPU = 0.000 seconds
create_atoms 4 single 53.472191743868294 34.3797 75.21604320916907
Created 1 atoms
  using lattice units in orthogonal box = (49.81919 11.776254 63.383741) to (92.693735 53.242046 104.112)
  create_atoms CPU = 0.000 seconds
create_atoms 1 single 55.297649397811675 34.7949 72.23685661891119
Created 1 atoms
  using lattice units in orthogonal box = (49.81919 11.776254 63.383741) to (92.693735 53.242046 104.112)
  create_atoms CPU = 0.000 seconds
create_atoms 2 single 58.240787662081594 33.6022 72.07382005730659
Created 1 atoms
  using lattice units in orthogonal box = (49.81919 11.776254 63.383741) to (92.693735 53.242046 104.112)
  create_atoms CPU = 0.000 seconds
create_atoms 1 single 57.94859891807352 36.1422 73.46696848137537
Created 1 atoms
  using lattice units in orthogonal box = (49.81919 11.776254 63.383741) to (92.693735 53.242046 104.112)
  create_atoms CPU = 0.000 seconds
create_atoms 1 single 57.32741827633467 33.4547 74.41895323782235
Created 1 atoms
  using lattice units in orthogonal box = (49.81919 11.776254 63.383741) to (92.693735 53.242046 104.112)
  create_atoms CPU = 0.000 seconds
create_atoms 1 single 55.6538013691445 36.1871 75.11251197707736
Created 1 atoms
  using lattice units in orthogonal box = (49.81919 11.776254 63.383741) to (92.693735 53.242046 104.112)
  create_atoms CPU = 0.000 seconds
create_atoms 3 single 59.61409819400431 34.7774 75.84738269340976
Created 1 atoms
  using lattice units in orthogonal box = (49.81919 11.776254 63.383741) to (92.693735 53.242046 104.112)
  create_atoms CPU = 0.000 seconds
create_atoms 1 single 60.61993870463651 33.9394 73.72720378223497
Created 1 atoms
  using lattice units in orthogonal box = (49.81919 11.776254 63.383741) to (92.693735 53.242046 104.112)
  create_atoms CPU = 0.000 seconds
create_atoms 2 single 62.38107545589427 34.5126 72.02758280802293
Created 1 atoms
  using lattice units in orthogonal box = (49.81919 11.776254 63.383741) to (92.693735 53.242046 104.112)
  create_atoms CPU = 0.000 seconds
create_atoms 1 single 60.25334916526023 36.4399 71.97410842406877
Created 1 atoms
  using lattice units in orthogonal box = (49.81919 11.776254 63.383741) to (92.693735 53.242046 104.112)
  create_atoms CPU = 0.000 seconds
create_atoms 1 single 63.74569703196106 33.1065 74.44800229226362
Created 1 atoms
  using lattice units in orthogonal box = (49.81919 11.776254 63.383741) to (92.693735 53.242046 104.112)
  create_atoms CPU = 0.000 seconds
create_atoms 1 single 63.07122989757382 36.0862 74.23651713467049
Created 1 atoms
  using lattice units in orthogonal box = (49.81919 11.776254 63.383741) to (92.693735 53.242046 104.112)
  create_atoms CPU = 0.000 seconds
create_atoms 2 single 60.57964421243022 36.6693 74.76342074498568
Created 1 atoms
  using lattice units in orthogonal box = (49.81919 11.776254 63.383741) to (92.693735 53.242046 104.112)
  create_atoms CPU = 0.000 seconds
create_atoms 5 single 64.50254928367771 33.0048 71.8485642406877
Created 1 atoms
  using lattice units in orthogonal box = (49.81919 11.776254 63.383741) to (92.693735 53.242046 104.112)
  create_atoms CPU = 0.000 seconds
create_atoms 3 single 66.93810139270374 34.5818 72.28641088825215
Created 1 atoms
  using lattice units in orthogonal box = (49.81919 11.776254 63.383741) to (92.693735 53.242046 104.112)
  create_atoms CPU = 0.000 seconds
create_atoms 1 single 64.71137275585178 36.0376 72.08899793696276
Created 1 atoms
  using lattice units in orthogonal box = (49.81919 11.776254 63.383741) to (92.693735 53.242046 104.112)
  create_atoms CPU = 0.000 seconds
create_atoms 3 single 65.79636956643327 35.215 74.53665719197708
Created 1 atoms
  using lattice units in orthogonal box = (49.81919 11.776254 63.383741) to (92.693735 53.242046 104.112)
  create_atoms CPU = 0.000 seconds
create_atoms 1 single 66.86477848834384 32.7309 74.32999679083095
Created 1 atoms
  using lattice units in orthogonal box = (49.81919 11.776254 63.383741) to (92.693735 53.242046 104.112)
  create_atoms CPU = 0.000 seconds
create_atoms 3 single 68.3716776651329 34.9294 74.5236906590258
Created 1 atoms
  using lattice units in orthogonal box = (49.81919 11.776254 63.383741) to (92.693735 53.242046 104.112)
  create_atoms CPU = 0.000 seconds
create_atoms 3 single 69.06896300573285 33.2375 73.08882819484242
Created 1 atoms
  using lattice units in orthogonal box = (49.81919 11.776254 63.383741) to (92.693735 53.242046 104.112)
  create_atoms CPU = 0.000 seconds
create_atoms 1 single 71.61310502937722 33.7203 72.50523369627508
Created 1 atoms
  using lattice units in orthogonal box = (49.81919 11.776254 63.383741) to (92.693735 53.242046 104.112)
  create_atoms CPU = 0.000 seconds
create_atoms 1 single 69.644755967793 35.9816 72.57137306590259
Created 1 atoms
  using lattice units in orthogonal box = (49.81919 11.776254 63.383741) to (92.693735 53.242046 104.112)
  create_atoms CPU = 0.000 seconds
create_atoms 1 single 73.65842956159716 36.1176 72.30088515759313
Created 1 atoms
  using lattice units in orthogonal box = (49.81919 11.776254 63.383741) to (92.693735 53.242046 104.112)
  create_atoms CPU = 0.000 seconds
create_atoms 3 single 72.12305055557144 36.5747 74.1500735816619
Created 1 atoms
  using lattice units in orthogonal box = (49.81919 11.776254 63.383741) to (92.693735 53.242046 104.112)
  create_atoms CPU = 0.000 seconds
create_atoms 5 single 71.09284808236904 34.5439 75.15935232091692
Created 1 atoms
  using lattice units in orthogonal box = (49.81919 11.776254 63.383741) to (92.693735 53.242046 104.112)
  create_atoms CPU = 0.000 seconds
create_atoms 3 single 73.77002062183868 34.6524 74.6485312320917
Created 1 atoms
  using lattice units in orthogonal box = (49.81919 11.776254 63.383741) to (92.693735 53.242046 104.112)
  create_atoms CPU = 0.000 seconds
create_atoms 3 single 69.79229573151068 36.7077 75.5720700286533
Created 1 atoms
  using lattice units in orthogonal box = (49.81919 11.776254 63.383741) to (92.693735 53.242046 104.112)
  create_atoms CPU = 0.000 seconds
create_atoms 4 single 77.81030407918182 33.1144 73.85214487106019
Created 1 atoms
  using lattice units in orthogonal box = (49.81919 11.776254 63.383741) to (92.693735 53.242046 104.112)
  create_atoms CPU = 0.000 seconds
create_atoms 1 single 74.9007016216856 33.2986 72.97735621776506
Created 1 atoms
  using lattice units in orthogonal box = (49.81919 11.776254 63.383741) to (92.693735 53.242046 104.112)
  create_atoms CPU = 0.000 seconds
create_atoms 1 single 76.11654565128772 35.1673 71.11590487106018
Created 1 atoms
  using lattice units in orthogonal box = (49.81919 11.776254 63.383741) to (92.693735 53.242046 104.112)
  create_atoms CPU = 0.000 seconds
create_atoms 4 single 76.73784116427449 35.3786 74.3450741547278
Created 1 atoms
  using lattice units in orthogonal box = (49.81919 11.776254 63.383741) to (92.693735 53.242046 104.112)
  create_atoms CPU = 0.000 seconds
create_atoms 1 single 74.87375629734441 36.9816 75.27775988538683
Created 1 atoms
  using lattice units in orthogonal box = (49.81919 11.776254 63.383741) to (92.693735 53.242046 104.112)
  create_atoms CPU = 0.000 seconds
create_atoms 1 single 78.36391407684442 32.6411 71.31663484240688
Created 1 atoms
  using lattice units in orthogonal box = (49.81919 11.776254 63.383741) to (92.693735 53.242046 104.112)
  create_atoms CPU = 0.000 seconds
create_atoms 3 single 80.49305337545923 33.2242 73.79183541547279
Created 1 atoms
  using lattice units in orthogonal box = (49.81919 11.776254 63.383741) to (92.693735 53.242046 104.112)
  create_atoms CPU = 0.000 seconds
create_atoms 1 single 81.19516712464319 34.6331 71.77780114613181
Created 1 atoms
  using lattice units in orthogonal box = (49.81919 11.776254 63.383741) to (92.693735 53.242046 104.112)
  create_atoms CPU = 0.000 seconds
create_atoms 1 single 78.93572908649946 35.6799 72.97434074498568
Created 1 atoms
  using lattice units in orthogonal box = (49.81919 11.776254 63.383741) to (92.693735 53.242046 104.112)
  create_atoms CPU = 0.000 seconds
create_atoms 1 single 83.29413436102783 33.0193 73.83344893982809
Created 1 atoms
  using lattice units in orthogonal box = (49.81919 11.776254 63.383741) to (92.693735 53.242046 104.112)
  create_atoms CPU = 0.000 seconds
create_atoms 2 single 81.53169691211576 35.3924 74.7448253295129
Created 1 atoms
  using lattice units in orthogonal box = (49.81919 11.776254 63.383741) to (92.693735 53.242046 104.112)
  create_atoms CPU = 0.000 seconds
create_atoms 1 single 82.9912125345617 36.8349 73.29126693409742
Created 1 atoms
  using lattice units in orthogonal box = (49.81919 11.776254 63.383741) to (92.693735 53.242046 104.112)
  create_atoms CPU = 0.000 seconds
create_atoms 1 single 84.49383540322579 35.2484 75.5296523782235
Created 1 atoms
  using lattice units in orthogonal box = (49.81919 11.776254 63.383741) to (92.693735 53.242046 104.112)
  create_atoms CPU = 0.000 seconds
create_atoms 4 single 57.30990715232462 38.3795 71.27311151862465
Created 1 atoms
  using lattice units in orthogonal box = (49.81919 11.776254 63.383741) to (92.693735 53.242046 104.112)
  create_atoms CPU = 0.000 seconds
create_atoms 4 single 59.43095959946906 38.7605 73.38967186246418
Created 1 atoms
  using lattice units in orthogonal box = (49.81919 11.776254 63.383741) to (92.693735 53.242046 104.112)
  create_atoms CPU = 0.000 seconds
create_atoms 2 single 57.258074379428336 39.0377 74.4420718624642
Created 1 atoms
  using lattice units in orthogonal box = (49.81919 11.776254 63.383741) to (92.693735 53.242046 104.112)
  create_atoms CPU = 0.000 seconds
create_atoms 1 single 58.48662180387159 41.5391 73.6500076790831
Created 1 atoms
  using lattice units in orthogonal box = (49.81919 11.776254 63.383741) to (92.693735 53.242046 104.112)
  create_atoms CPU = 0.000 seconds
create_atoms 4 single 55.29508425296214 37.7493 72.71722143266476
Created 1 atoms
  using lattice units in orthogonal box = (49.81919 11.776254 63.383741) to (92.693735 53.242046 104.112)
  create_atoms CPU = 0.000 seconds
create_atoms 5 single 59.799674644819916 39.3323 70.76540641833812
Created 1 atoms
  using lattice units in orthogonal box = (49.81919 11.776254 63.383741) to (92.693735 53.242046 104.112)
  create_atoms CPU = 0.000 seconds
create_atoms 1 single 62.602625341403346 38.1757 71.68211014326648
Created 1 atoms
  using lattice units in orthogonal box = (49.81919 11.776254 63.383741) to (92.693735 53.242046 104.112)
  create_atoms CPU = 0.000 seconds
create_atoms 2 single 62.133970390358115 38.58 74.25732389684815
Created 1 atoms
  using lattice units in orthogonal box = (49.81919 11.776254 63.383741) to (92.693735 53.242046 104.112)
  create_atoms CPU = 0.000 seconds
create_atoms 3 single 61.99287757598601 40.9033 71.13801833810889
Created 1 atoms
  using lattice units in orthogonal box = (49.81919 11.776254 63.383741) to (92.693735 53.242046 104.112)
  create_atoms CPU = 0.000 seconds
create_atoms 1 single 64.04467626696864 40.5547 73.28975919770775
Created 1 atoms
  using lattice units in orthogonal box = (49.81919 11.776254 63.383741) to (92.693735 53.242046 104.112)
  create_atoms CPU = 0.000 seconds
create_atoms 4 single 61.17177603084762 40.907 73.45520813753582
Created 1 atoms
  using lattice units in orthogonal box = (49.81919 11.776254 63.383741) to (92.693735 53.242046 104.112)
  create_atoms CPU = 0.000 seconds
create_atoms 1 single 67.46448976218367 37.2633 73.58215954154728
Created 1 atoms
  using lattice units in orthogonal box = (49.81919 11.776254 63.383741) to (92.693735 53.242046 104.112)
  create_atoms CPU = 0.000 seconds
create_atoms 3 single 65.42851489220229 38.6218 72.06497467048712
Created 1 atoms
  using lattice units in orthogonal box = (49.81919 11.776254 63.383741) to (92.693735 53.242046 104.112)
  create_atoms CPU = 0.000 seconds
create_atoms 1 single 67.2326574872304 40.4568 73.33720263610316
Created 1 atoms
  using lattice units in orthogonal box = (49.81919 11.776254 63.383741) to (92.693735 53.242046 104.112)
  create_atoms CPU = 0.000 seconds
create_atoms 1 single 65.20102015102448 38.149 74.80815025787967
Created 1 atoms
  using lattice units in orthogonal box = (49.81919 11.776254 63.383741) to (92.693735 53.242046 104.112)
  create_atoms CPU = 0.000 seconds
create_atoms 2 single 68.7895920056903 38.8446 71.96757489971347
Created 1 atoms
  using lattice units in orthogonal box = (49.81919 11.776254 63.383741) to (92.693735 53.242046 104.112)
  create_atoms CPU = 0.000 seconds
create_atoms 5 single 68.17487425030212 39.0507 75.85220744985673
Created 1 atoms
  using lattice units in orthogonal box = (49.81919 11.776254 63.383741) to (92.693735 53.242046 104.112)
  create_atoms CPU = 0.000 seconds
create_atoms 2 single 69.48568129680898 41.2533 75.3419894555874
Created 1 atoms
  using lattice units in orthogonal box = (49.81919 11.776254 63.383741) to (92.693735 53.242046 104.112)
  create_atoms CPU = 0.000 seconds
create_atoms 1 single 70.45770290143241 38.7175 74.3368318624642
Created 1 atoms
  using lattice units in orthogonal box = (49.81919 11.776254 63.383741) to (92.693735 53.242046 104.112)
  create_atoms CPU = 0.000 seconds
create_atoms 4 single 71.48046172455821 38.0505 71.90063140401148
Created 1 atoms
  using lattice units in orthogonal box = (49.81919 11.776254 63.383741) to (92.693735 53.242046 104.112)
  create_atoms CPU = 0.000 seconds
create_atoms 4 single 73.69565419867017 39.3451 73.59814154727795
Created 1 atoms
  using lattice units in orthogonal box = (49.81919 11.776254 63.383741) to (92.693735 53.242046 104.112)
  create_atoms CPU = 0.000 seconds
create_atoms 1 single 70.21649504956252 41.3044 72.89975805157594
Created 1 atoms
  using lattice units in orthogonal box = (49.81919 11.776254 63.383741) to (92.693735 53.242046 104.112)
  create_atoms CPU = 0.000 seconds
create_atoms 4 single 72.17852123748524 40.3335 71.19470922636104
Created 1 atoms
  using lattice units in orthogonal box = (49.81919 11.776254 63.383741) to (92.693735 53.242046 104.112)
  create_atoms CPU = 0.000 seconds
create_atoms 1 single 72.29830206965448 40.8355 75.5581988538682
Created 1 atoms
  using lattice units in orthogonal box = (49.81919 11.776254 63.383741) to (92.693735 53.242046 104.112)
  create_atoms CPU = 0.000 seconds
create_atoms 4 single 74.40051877499161 38.7655 70.91939656160459
Created 1 atoms
  using lattice units in orthogonal box = (49.81919 11.776254 63.383741) to (92.693735 53.242046 104.112)
  create_atoms CPU = 0.000 seconds
create_atoms 5 single 76.35346417991269 37.7284 73.0323383381089
Created 1 atoms
  using lattice units in orthogonal box = (49.81919 11.776254 63.383741) to (92.693735 53.242046 104.112)
  create_atoms CPU = 0.000 seconds
create_atoms 4 single 75.82505267851884 40.7972 72.91795140401148
Created 1 atoms
  using lattice units in orthogonal box = (49.81919 11.776254 63.383741) to (92.693735 53.242046 104.112)
  create_atoms CPU = 0.000 seconds
create_atoms 4 single 77.43022922276484 37.9158 70.70781088825215
Created 1 atoms
  using lattice units in orthogonal box = (49.81919 11.776254 63.383741) to (92.693735 53.242046 104.112)
  create_atoms CPU = 0.000 seconds
create_atoms 2 single 78.12990160740726 41.7061 74.690144756447
Created 1 atoms
  using lattice units in orthogonal box = (49.81919 11.776254 63.383741) to (92.693735 53.242046 104.112)
  create_atoms CPU = 0.000 seconds
create_atoms 1 single 77.11922589565312 39.2164 75.5932788538682
Created 1 atoms
  using lattice units in orthogonal box = (49.81919 11.776254 63.383741) to (92.693735 53.242046 104.112)
  create_atoms CPU = 0.000 seconds
create_atoms 1 single 75.52572965217189 41.7519 75.51527862464184
Created 1 atoms
  using lattice units in orthogonal box = (49.81919 11.776254 63.383741) to (92.693735 53.242046 104.112)
  create_atoms CPU = 0.000 seconds
create_atoms 4 single 80.42521935637019 40.6614 71.57626704871062
Created 1 atoms
  using lattice units in orthogonal box = (49.81919 11.776254 63.383741) to (92.693735 53.242046 104.112)
  create_atoms CPU = 0.000 seconds
create_atoms 1 single 78.70117427243352 39.534 73.19738521489973
Created 1 atoms
  using lattice units in orthogonal box = (49.81919 11.776254 63.383741) to (92.693735 53.242046 104.112)
  create_atoms CPU = 0.000 seconds
create_atoms 1 single 82.34307144754833 39.5529 74.15509936962752
Created 1 atoms
  using lattice units in orthogonal box = (49.81919 11.776254 63.383741) to (92.693735 53.242046 104.112)
  create_atoms CPU = 0.000 seconds
create_atoms 2 single 80.53593024854273 37.6544 74.37372114613181
Created 1 atoms
  using lattice units in orthogonal box = (49.81919 11.776254 63.383741) to (92.693735 53.242046 104.112)
  create_atoms CPU = 0.000 seconds
create_atoms 1 single 80.36753942656398 37.6965 71.60370785100288
Created 1 atoms
  using lattice units in orthogonal box = (49.81919 11.776254 63.383741) to (92.693735 53.242046 104.112)
  create_atoms CPU = 0.000 seconds
create_atoms 4 single 85.24490899560212 38.1899 75.43044332378226
Created 1 atoms
  using lattice units in orthogonal box = (49.81919 11.776254 63.383741) to (92.693735 53.242046 104.112)
  create_atoms CPU = 0.000 seconds
create_atoms 2 single 57.81871381359459 43.9476 74.73638200573068
Created 1 atoms
  using lattice units in orthogonal box = (49.81919 11.776254 63.383741) to (92.693735 53.242046 104.112)
  create_atoms CPU = 0.000 seconds
create_atoms 4 single 59.70056595403294 42.441 71.40609386819484
Created 1 atoms
  using lattice units in orthogonal box = (49.81919 11.776254 63.383741) to (92.693735 53.242046 104.112)
  create_atoms CPU = 0.000 seconds
create_atoms 1 single 62.66170139341766 43.3742 72.20077146131806
Created 1 atoms
  using lattice units in orthogonal box = (49.81919 11.776254 63.383741) to (92.693735 53.242046 104.112)
  create_atoms CPU = 0.000 seconds
create_atoms 1 single 60.560531542567865 44.0806 74.02040825214901
Created 1 atoms
  using lattice units in orthogonal box = (49.81919 11.776254 63.383741) to (92.693735 53.242046 104.112)
  create_atoms CPU = 0.000 seconds
create_atoms 1 single 63.75733470699931 45.3578 74.5701289398281
Created 1 atoms
  using lattice units in orthogonal box = (49.81919 11.776254 63.383741) to (92.693735 53.242046 104.112)
  create_atoms CPU = 0.000 seconds
create_atoms 4 single 62.926452659957015 42.291 75.144576504298
Created 1 atoms
  using lattice units in orthogonal box = (49.81919 11.776254 63.383741) to (92.693735 53.242046 104.112)
  create_atoms CPU = 0.000 seconds
create_atoms 1 single 65.2961532763175 42.4065 71.60511507163325
Created 1 atoms
  using lattice units in orthogonal box = (49.81919 11.776254 63.383741) to (92.693735 53.242046 104.112)
  create_atoms CPU = 0.000 seconds
create_atoms 2 single 65.34077614141201 43.0631 74.27169765042981
Created 1 atoms
  using lattice units in orthogonal box = (49.81919 11.776254 63.383741) to (92.693735 53.242046 104.112)
  create_atoms CPU = 0.000 seconds
create_atoms 2 single 67.87343614228723 42.244 71.35081020057308
Created 1 atoms
  using lattice units in orthogonal box = (49.81919 11.776254 63.383741) to (92.693735 53.242046 104.112)
  create_atoms CPU = 0.000 seconds
create_atoms 1 single 67.92675419724233 43.4347 73.76942040114615
Created 1 atoms
  using lattice units in orthogonal box = (49.81919 11.776254 63.383741) to (92.693735 53.242046 104.112)
  create_atoms CPU = 0.000 seconds
create_atoms 2 single 67.25617663935502 44.6641 70.85778040114614
Created 1 atoms
  using lattice units in orthogonal box = (49.81919 11.776254 63.383741) to (92.693735 53.242046 104.112)
  create_atoms CPU = 0.000 seconds
create_atoms 4 single 65.51285948819076 45.3238 72.65882177650431
Created 1 atoms
  using lattice units in orthogonal box = (49.81919 11.776254 63.383741) to (92.693735 53.242046 104.112)
  create_atoms CPU = 0.000 seconds
create_atoms 4 single 68.07673225521441 46.5553 73.01022487106017
Created 1 atoms
  using lattice units in orthogonal box = (49.81919 11.776254 63.383741) to (92.693735 53.242046 104.112)
  create_atoms CPU = 0.000 seconds
create_atoms 1 single 66.94641591798018 45.522 75.73088492836676
Created 1 atoms
  using lattice units in orthogonal box = (49.81919 11.776254 63.383741) to (92.693735 53.242046 104.112)
  create_atoms CPU = 0.000 seconds
create_atoms 2 single 72.3207229723401 45.1285 74.27863323782235
Created 1 atoms
  using lattice units in orthogonal box = (49.81919 11.776254 63.383741) to (92.693735 53.242046 104.112)
  create_atoms CPU = 0.000 seconds
create_atoms 1 single 70.02373261260855 44.2831 72.37667404011462
Created 1 atoms
  using lattice units in orthogonal box = (49.81919 11.776254 63.383741) to (92.693735 53.242046 104.112)
  create_atoms CPU = 0.000 seconds
create_atoms 3 single 71.0336791881399 43.1789 74.86132309455589
Created 1 atoms
  using lattice units in orthogonal box = (49.81919 11.776254 63.383741) to (92.693735 53.242046 104.112)
  create_atoms CPU = 0.000 seconds
create_atoms 2 single 71.25689940887737 42.6781 70.90944550143267
Created 1 atoms
  using lattice units in orthogonal box = (49.81919 11.776254 63.383741) to (92.693735 53.242046 104.112)
  create_atoms CPU = 0.000 seconds
create_atoms 1 single 73.07972837813641 42.6516 73.47068756446993
Created 1 atoms
  using lattice units in orthogonal box = (49.81919 11.776254 63.383741) to (92.693735 53.242046 104.112)
  create_atoms CPU = 0.000 seconds
create_atoms 1 single 72.78901477878223 45.0309 71.59104286532951
Created 1 atoms
  using lattice units in orthogonal box = (49.81919 11.776254 63.383741) to (92.693735 53.242046 104.112)
  create_atoms CPU = 0.000 seconds
create_atoms 1 single 69.97746439461622 45.4852 75.43607220630373
Created 1 atoms
  using lattice units in orthogonal box = (49.81919 11.776254 63.383741) to (92.693735 53.242046 104.112)
  create_atoms CPU = 0.000 seconds
create_atoms 1 single 74.03909929260166 42.4524 70.77807140401147
Created 1 atoms
  using lattice units in orthogonal box = (49.81919 11.776254 63.383741) to (92.693735 53.242046 104.112)
  create_atoms CPU = 0.000 seconds
create_atoms 4 single 78.0160215820289 42.4706 72.10266808022924
Created 1 atoms
  using lattice units in orthogonal box = (49.81919 11.776254 63.383741) to (92.693735 53.242046 104.112)
  create_atoms CPU = 0.000 seconds
create_atoms 1 single 74.91249608247958 44.9432 75.70927404011462
Created 1 atoms
  using lattice units in orthogonal box = (49.81919 11.776254 63.383741) to (92.693735 53.242046 104.112)
  create_atoms CPU = 0.000 seconds
create_atoms 1 single 75.83301957749897 43.9779 73.20924607449858
Created 1 atoms
  using lattice units in orthogonal box = (49.81919 11.776254 63.383741) to (92.693735 53.242046 104.112)
  create_atoms CPU = 0.000 seconds
create_atoms 3 single 77.3785741333125 43.66 75.80647277936964
Created 1 atoms
  using lattice units in orthogonal box = (49.81919 11.776254 63.383741) to (92.693735 53.242046 104.112)
  create_atoms CPU = 0.000 seconds
create_atoms 1 single 80.74230654096155 41.9947 74.21309696275073
Created 1 atoms
  using lattice units in orthogonal box = (49.81919 11.776254 63.383741) to (92.693735 53.242046 104.112)
  create_atoms CPU = 0.000 seconds
create_atoms 1 single 79.06205184531308 44.4807 74.31059724928367
Created 1 atoms
  using lattice units in orthogonal box = (49.81919 11.776254 63.383741) to (92.693735 53.242046 104.112)
  create_atoms CPU = 0.000 seconds
create_atoms 3 single 61.492859703608204 46.6248 74.97691621776505
Created 1 atoms
  using lattice units in orthogonal box = (49.81919 11.776254 63.383741) to (92.693735 53.242046 104.112)
  create_atoms CPU = 0.000 seconds
create_atoms 2 single 66.209592218966 47.8949 74.54258762177652
Created 1 atoms
  using lattice units in orthogonal box = (49.81919 11.776254 63.383741) to (92.693735 53.242046 104.112)
  create_atoms CPU = 0.000 seconds
create_atoms 1 single 69.05664197534885 48.301 75.60725054441262
Created 1 atoms
  using lattice units in orthogonal box = (49.81919 11.776254 63.383741) to (92.693735 53.242046 104.112)
  create_atoms CPU = 0.000 seconds
create_atoms 5 single 70.91105408810577 47.0883 72.78165203438395
Created 1 atoms
  using lattice units in orthogonal box = (49.81919 11.776254 63.383741) to (92.693735 53.242046 104.112)
  create_atoms CPU = 0.000 seconds
create_atoms 1 single 72.35188153007432 47.6938 75.51909822349572
Created 1 atoms
  using lattice units in orthogonal box = (49.81919 11.776254 63.383741) to (92.693735 53.242046 104.112)
  create_atoms CPU = 0.000 seconds
create_atoms 1 single 74.11943412847639 47.0264 73.57070074498569
Created 1 atoms
  using lattice units in orthogonal box = (49.81919 11.776254 63.383741) to (92.693735 53.242046 104.112)
  create_atoms CPU = 0.000 seconds
create_atoms 1 single 77.09096463430681 46.565 74.84242613180517
Created 1 atoms
  using lattice units in orthogonal box = (49.81919 11.776254 63.383741) to (92.693735 53.242046 104.112)
  create_atoms CPU = 0.000 seconds
create_atoms 1 single 60.096127742500194 18.1667 79.32241352435531
Created 1 atoms
  using lattice units in orthogonal box = (49.81919 11.776254 63.383741) to (92.693735 53.242046 104.112)
  create_atoms CPU = 0.000 seconds
create_atoms 3 single 62.838566354883355 17.6317 79.63913868194844
Created 1 atoms
  using lattice units in orthogonal box = (49.81919 11.776254 63.383741) to (92.693735 53.242046 104.112)
  create_atoms CPU = 0.000 seconds
create_atoms 4 single 61.45456614017982 16.9035 77.23540481375359
Created 1 atoms
  using lattice units in orthogonal box = (49.81919 11.776254 63.383741) to (92.693735 53.242046 104.112)
  create_atoms CPU = 0.000 seconds
create_atoms 1 single 64.7036668364063 17.1539 78.19492825214901
Created 1 atoms
  using lattice units in orthogonal box = (49.81919 11.776254 63.383741) to (92.693735 53.242046 104.112)
  create_atoms CPU = 0.000 seconds
create_atoms 1 single 64.3149711585975 15.5561 80.6578659025788
Created 1 atoms
  using lattice units in orthogonal box = (49.81919 11.776254 63.383741) to (92.693735 53.242046 104.112)
  create_atoms CPU = 0.000 seconds
create_atoms 1 single 67.21854323724776 15.4479 79.1077118624642
Created 1 atoms
  using lattice units in orthogonal box = (49.81919 11.776254 63.383741) to (92.693735 53.242046 104.112)
  create_atoms CPU = 0.000 seconds
create_atoms 2 single 66.47714677977693 16.8509 76.5403383381089
Created 1 atoms
  using lattice units in orthogonal box = (49.81919 11.776254 63.383741) to (92.693735 53.242046 104.112)
  create_atoms CPU = 0.000 seconds
create_atoms 2 single 68.96856108678024 17.069 78.00927564469914
Created 1 atoms
  using lattice units in orthogonal box = (49.81919 11.776254 63.383741) to (92.693735 53.242046 104.112)
  create_atoms CPU = 0.000 seconds
create_atoms 1 single 70.26689699483741 14.8419 78.90125249283668
Created 1 atoms
  using lattice units in orthogonal box = (49.81919 11.776254 63.383741) to (92.693735 53.242046 104.112)
  create_atoms CPU = 0.000 seconds
create_atoms 2 single 66.3586095370014 17.305 80.88312171919772
Created 1 atoms
  using lattice units in orthogonal box = (49.81919 11.776254 63.383741) to (92.693735 53.242046 104.112)
  create_atoms CPU = 0.000 seconds
create_atoms 1 single 71.41764301826073 16.8237 77.21781455587394
Created 1 atoms
  using lattice units in orthogonal box = (49.81919 11.776254 63.383741) to (92.693735 53.242046 104.112)
  create_atoms CPU = 0.000 seconds
create_atoms 1 single 74.62508843603231 17.5734 77.78924664756448
Created 1 atoms
  using lattice units in orthogonal box = (49.81919 11.776254 63.383741) to (92.693735 53.242046 104.112)
  create_atoms CPU = 0.000 seconds
create_atoms 2 single 71.1030784426532 17.3745 79.81092011461318
Created 1 atoms
  using lattice units in orthogonal box = (49.81919 11.776254 63.383741) to (92.693735 53.242046 104.112)
  create_atoms CPU = 0.000 seconds
create_atoms 1 single 73.48420837281638 15.9254 79.74065959885388
Created 1 atoms
  using lattice units in orthogonal box = (49.81919 11.776254 63.383741) to (92.693735 53.242046 104.112)
  create_atoms CPU = 0.000 seconds
create_atoms 3 single 75.27677902331789 17.9757 80.55343002865331
Created 1 atoms
  using lattice units in orthogonal box = (49.81919 11.776254 63.383741) to (92.693735 53.242046 104.112)
  create_atoms CPU = 0.000 seconds
create_atoms 2 single 76.51299017302891 15.8754 80.6162523782235
Created 1 atoms
  using lattice units in orthogonal box = (49.81919 11.776254 63.383741) to (92.693735 53.242046 104.112)
  create_atoms CPU = 0.000 seconds
create_atoms 1 single 77.63544957753331 17.4753 78.8369224068768
Created 1 atoms
  using lattice units in orthogonal box = (49.81919 11.776254 63.383741) to (92.693735 53.242046 104.112)
  create_atoms CPU = 0.000 seconds
create_atoms 2 single 76.37582460162798 17.7793 75.94659174785102
Created 1 atoms
  using lattice units in orthogonal box = (49.81919 11.776254 63.383741) to (92.693735 53.242046 104.112)
  create_atoms CPU = 0.000 seconds
create_atoms 1 single 79.66109275322611 16.0948 80.85166028653296
Created 1 atoms
  using lattice units in orthogonal box = (49.81919 11.776254 63.383741) to (92.693735 53.242046 104.112)
  create_atoms CPU = 0.000 seconds
create_atoms 1 single 80.72062117180495 18.1982 79.073536504298
Created 1 atoms
  using lattice units in orthogonal box = (49.81919 11.776254 63.383741) to (92.693735 53.242046 104.112)
  create_atoms CPU = 0.000 seconds
create_atoms 2 single 55.68391731114704 22.8293 77.56429237822351
Created 1 atoms
  using lattice units in orthogonal box = (49.81919 11.776254 63.383741) to (92.693735 53.242046 104.112)
  create_atoms CPU = 0.000 seconds
create_atoms 3 single 59.749307106633985 19.3242 76.7540348424069
Created 1 atoms
  using lattice units in orthogonal box = (49.81919 11.776254 63.383741) to (92.693735 53.242046 104.112)
  create_atoms CPU = 0.000 seconds
create_atoms 1 single 58.06804231203943 21.1909 77.45724309455588
Created 1 atoms
  using lattice units in orthogonal box = (49.81919 11.776254 63.383741) to (92.693735 53.242046 104.112)
  create_atoms CPU = 0.000 seconds
create_atoms 2 single 60.63210791128309 20.7668 78.78696607449858
Created 1 atoms
  using lattice units in orthogonal box = (49.81919 11.776254 63.383741) to (92.693735 53.242046 104.112)
  create_atoms CPU = 0.000 seconds
[...]
  create_atoms CPU = 0.000 seconds
create_atoms 2 single 68.52336511992802 35.747 101.06558051575932
Created 1 atoms
  using lattice units in orthogonal box = (49.81919 11.776254 63.383741) to (92.693735 53.242046 104.112)
  create_atoms CPU = 0.000 seconds
create_atoms 1 single 70.18769680350786 33.3105 101.8526189111748
Created 1 atoms
  using lattice units in orthogonal box = (49.81919 11.776254 63.383741) to (92.693735 53.242046 104.112)
  create_atoms CPU = 0.000 seconds
create_atoms 5 single 72.37750763223448 33.6171 98.18138131805159
Created 1 atoms
  using lattice units in orthogonal box = (49.81919 11.776254 63.383741) to (92.693735 53.242046 104.112)
  create_atoms CPU = 0.000 seconds
create_atoms 1 single 70.6650158365011 34.9569 99.58438028653298
Created 1 atoms
  using lattice units in orthogonal box = (49.81919 11.776254 63.383741) to (92.693735 53.242046 104.112)
  create_atoms CPU = 0.000 seconds
create_atoms 1 single 73.14564093796305 33.8821 101.49277249283668
Created 1 atoms
  using lattice units in orthogonal box = (49.81919 11.776254 63.383741) to (92.693735 53.242046 104.112)
  create_atoms CPU = 0.000 seconds
create_atoms 2 single 75.61886534676812 35.7171 102.0134441260745
Created 1 atoms
  using lattice units in orthogonal box = (49.81919 11.776254 63.383741) to (92.693735 53.242046 104.112)
  create_atoms CPU = 0.000 seconds
create_atoms 3 single 71.20196440728147 35.912 102.07576389684816
Created 1 atoms
  using lattice units in orthogonal box = (49.81919 11.776254 63.383741) to (92.693735 53.242046 104.112)
  create_atoms CPU = 0.000 seconds
create_atoms 1 single 75.08720961606085 34.2935 99.55834670487107
Created 1 atoms
  using lattice units in orthogonal box = (49.81919 11.776254 63.383741) to (92.693735 53.242046 104.112)
  create_atoms CPU = 0.000 seconds
create_atoms 4 single 72.87674565895556 36.2491 98.35507255014328
Created 1 atoms
  using lattice units in orthogonal box = (49.81919 11.776254 63.383741) to (92.693735 53.242046 104.112)
  create_atoms CPU = 0.000 seconds
create_atoms 5 single 73.1553177026239 36.9879 101.00125042979944
Created 1 atoms
  using lattice units in orthogonal box = (49.81919 11.776254 63.383741) to (92.693735 53.242046 104.112)
  create_atoms CPU = 0.000 seconds
create_atoms 3 single 77.63872499738835 33.7328 98.86971323782235
Created 1 atoms
  using lattice units in orthogonal box = (49.81919 11.776254 63.383741) to (92.693735 53.242046 104.112)
  create_atoms CPU = 0.000 seconds
create_atoms 1 single 75.92667571610319 35.452 97.13159472779371
Created 1 atoms
  using lattice units in orthogonal box = (49.81919 11.776254 63.383741) to (92.693735 53.242046 104.112)
  create_atoms CPU = 0.000 seconds
create_atoms 1 single 79.0156360101201 32.5118 101.28470487106019
Created 1 atoms
  using lattice units in orthogonal box = (49.81919 11.776254 63.383741) to (92.693735 53.242046 104.112)
  create_atoms CPU = 0.000 seconds
create_atoms 3 single 77.58833061431862 35.074 100.89369856733526
Created 1 atoms
  using lattice units in orthogonal box = (49.81919 11.776254 63.383741) to (92.693735 53.242046 104.112)
  create_atoms CPU = 0.000 seconds
create_atoms 1 single 78.63828333113814 36.3904 98.81975690544415
Created 1 atoms
  using lattice units in orthogonal box = (49.81919 11.776254 63.383741) to (92.693735 53.242046 104.112)
  create_atoms CPU = 0.000 seconds
create_atoms 1 single 76.13796440728147 32.7838 102.07576389684816
Created 1 atoms
  using lattice units in orthogonal box = (49.81919 11.776254 63.383741) to (92.693735 53.242046 104.112)
  create_atoms CPU = 0.000 seconds
create_atoms 2 single 83.2908279442606 34.2489 97.35825776504299
Created 1 atoms
  using lattice units in orthogonal box = (49.81919 11.776254 63.383741) to (92.693735 53.242046 104.112)
  create_atoms CPU = 0.000 seconds
create_atoms 2 single 80.18192206122484 33.5206 99.09657730659026
Created 1 atoms
  using lattice units in orthogonal box = (49.81919 11.776254 63.383741) to (92.693735 53.242046 104.112)
  create_atoms CPU = 0.000 seconds
create_atoms 1 single 81.20076749327475 35.6885 97.95522085959887
Created 1 atoms
  using lattice units in orthogonal box = (49.81919 11.776254 63.383741) to (92.693735 53.242046 104.112)
  create_atoms CPU = 0.000 seconds
create_atoms 1 single 80.3439425829571 35.1433 101.2766636103152
Created 1 atoms
  using lattice units in orthogonal box = (49.81919 11.776254 63.383741) to (92.693735 53.242046 104.112)
  create_atoms CPU = 0.000 seconds
create_atoms 1 single 82.83111418722356 34.2123 100.31432573065904
Created 1 atoms
  using lattice units in orthogonal box = (49.81919 11.776254 63.383741) to (92.693735 53.242046 104.112)
  create_atoms CPU = 0.000 seconds
create_atoms 1 single 84.11739025637186 36.5072 98.77764080229227
Created 1 atoms
  using lattice units in orthogonal box = (49.81919 11.776254 63.383741) to (92.693735 53.242046 104.112)
  create_atoms CPU = 0.000 seconds
create_atoms 3 single 87.56131667042077 32.9515 98.10609501432666
Created 1 atoms
  using lattice units in orthogonal box = (49.81919 11.776254 63.383741) to (92.693735 53.242046 104.112)
  create_atoms CPU = 0.000 seconds
create_atoms 2 single 85.93980400198625 35.03 97.19180366762178
Created 1 atoms
  using lattice units in orthogonal box = (49.81919 11.776254 63.383741) to (92.693735 53.242046 104.112)
  create_atoms CPU = 0.000 seconds
create_atoms 1 single 85.49564694084411 33.7752 99.45762991404013
Created 1 atoms
  using lattice units in orthogonal box = (49.81919 11.776254 63.383741) to (92.693735 53.242046 104.112)
  create_atoms CPU = 0.000 seconds
create_atoms 2 single 64.3880469401302 37.6827 99.54326934097422
Created 1 atoms
  using lattice units in orthogonal box = (49.81919 11.776254 63.383741) to (92.693735 53.242046 104.112)
  create_atoms CPU = 0.000 seconds
create_atoms 2 single 62.67702442314893 38.6712 97.35644848137537
Created 1 atoms
  using lattice units in orthogonal box = (49.81919 11.776254 63.383741) to (92.693735 53.242046 104.112)
  create_atoms CPU = 0.000 seconds
create_atoms 1 single 65.2664850931218 40.0611 98.64938269340975
Created 1 atoms
  using lattice units in orthogonal box = (49.81919 11.776254 63.383741) to (92.693735 53.242046 104.112)
  create_atoms CPU = 0.000 seconds
create_atoms 3 single 67.10346221517682 41.5137 97.52430979942694
Created 1 atoms
  using lattice units in orthogonal box = (49.81919 11.776254 63.383741) to (92.693735 53.242046 104.112)
  create_atoms CPU = 0.000 seconds
create_atoms 4 single 67.19240294408212 38.7222 97.3796676217765
Created 1 atoms
  using lattice units in orthogonal box = (49.81919 11.776254 63.383741) to (92.693735 53.242046 104.112)
  create_atoms CPU = 0.000 seconds
create_atoms 1 single 69.63807653645846 40.2506 97.28045856733526
Created 1 atoms
  using lattice units in orthogonal box = (49.81919 11.776254 63.383741) to (92.693735 53.242046 104.112)
  create_atoms CPU = 0.000 seconds
create_atoms 1 single 69.9743060920935 37.8156 99.89909512893983
Created 1 atoms
  using lattice units in orthogonal box = (49.81919 11.776254 63.383741) to (92.693735 53.242046 104.112)
  create_atoms CPU = 0.000 seconds
create_atoms 3 single 66.96946876945198 37.7889 99.7428936389685
Created 1 atoms
  using lattice units in orthogonal box = (49.81919 11.776254 63.383741) to (92.693735 53.242046 104.112)
  create_atoms CPU = 0.000 seconds
create_atoms 1 single 68.30001771261874 40.285 99.80229845272207
Created 1 atoms
  using lattice units in orthogonal box = (49.81919 11.776254 63.383741) to (92.693735 53.242046 104.112)
  create_atoms CPU = 0.000 seconds
create_atoms 4 single 74.40396714301977 40.0712 97.73237742120345
Created 1 atoms
  using lattice units in orthogonal box = (49.81919 11.776254 63.383741) to (92.693735 53.242046 104.112)
  create_atoms CPU = 0.000 seconds
create_atoms 1 single 72.36212957711807 41.7355 98.59801914040116
Created 1 atoms
  using lattice units in orthogonal box = (49.81919 11.776254 63.383741) to (92.693735 53.242046 104.112)
  create_atoms CPU = 0.000 seconds
create_atoms 4 single 72.00533826433546 38.6812 98.38552882521492
Created 1 atoms
  using lattice units in orthogonal box = (49.81919 11.776254 63.383741) to (92.693735 53.242046 104.112)
  create_atoms CPU = 0.000 seconds
create_atoms 1 single 74.17248085222442 39.6636 100.51415106017194
Created 1 atoms
  using lattice units in orthogonal box = (49.81919 11.776254 63.383741) to (92.693735 53.242046 104.112)
  create_atoms CPU = 0.000 seconds
create_atoms 2 single 71.2152936469295 40.3273 100.36086452722064
Created 1 atoms
  using lattice units in orthogonal box = (49.81919 11.776254 63.383741) to (92.693735 53.242046 104.112)
  create_atoms CPU = 0.000 seconds
create_atoms 2 single 76.99267500559839 38.5339 97.88485982808024
Created 1 atoms
  using lattice units in orthogonal box = (49.81919 11.776254 63.383741) to (92.693735 53.242046 104.112)
  create_atoms CPU = 0.000 seconds
create_atoms 1 single 76.91540575754468 41.345 97.79218429799428
Created 1 atoms
  using lattice units in orthogonal box = (49.81919 11.776254 63.383741) to (92.693735 53.242046 104.112)
  create_atoms CPU = 0.000 seconds
create_atoms 1 single 75.72235503811592 37.2403 99.61594223495703
Created 1 atoms
  using lattice units in orthogonal box = (49.81919 11.776254 63.383741) to (92.693735 53.242046 104.112)
  create_atoms CPU = 0.000 seconds
create_atoms 3 single 76.18516769369995 38.2918 102.07174326647566
Created 1 atoms
  using lattice units in orthogonal box = (49.81919 11.776254 63.383741) to (92.693735 53.242046 104.112)
  create_atoms CPU = 0.000 seconds
create_atoms 1 single 78.55125361567849 37.7292 101.2937512893983
Created 1 atoms
  using lattice units in orthogonal box = (49.81919 11.776254 63.383741) to (92.693735 53.242046 104.112)
  create_atoms CPU = 0.000 seconds
create_atoms 3 single 76.8722882504141 39.8057 100.05549765042981
Created 1 atoms
  using lattice units in orthogonal box = (49.81919 11.776254 63.383741) to (92.693735 53.242046 104.112)
  create_atoms CPU = 0.000 seconds
create_atoms 1 single 79.51653180206286 39.5195 99.21005959885387
Created 1 atoms
  using lattice units in orthogonal box = (49.81919 11.776254 63.383741) to (92.693735 53.242046 104.112)
  create_atoms CPU = 0.000 seconds
create_atoms 3 single 80.098251772401 38.0196 97.1364194842407
Created 1 atoms
  using lattice units in orthogonal box = (49.81919 11.776254 63.383741) to (92.693735 53.242046 104.112)
  create_atoms CPU = 0.000 seconds
create_atoms 1 single 82.380715845782 38.9569 98.4710677363897
Created 1 atoms
  using lattice units in orthogonal box = (49.81919 11.776254 63.383741) to (92.693735 53.242046 104.112)
  create_atoms CPU = 0.000 seconds
create_atoms 2 single 81.49352160754464 41.263 97.2008500859599
Created 1 atoms
  using lattice units in orthogonal box = (49.81919 11.776254 63.383741) to (92.693735 53.242046 104.112)
  create_atoms CPU = 0.000 seconds
create_atoms 2 single 81.38030303822644 37.2866 100.16586395415474
Created 1 atoms
  using lattice units in orthogonal box = (49.81919 11.776254 63.383741) to (92.693735 53.242046 104.112)
  create_atoms CPU = 0.000 seconds
create_atoms 1 single 66.82889320538587 44.1873 97.00926704871061
Created 1 atoms
  using lattice units in orthogonal box = (49.81919 11.776254 63.383741) to (92.693735 53.242046 104.112)
  create_atoms CPU = 0.000 seconds
create_atoms 1 single 69.67553076272057 45.3041 97.17129845272208
Created 1 atoms
  using lattice units in orthogonal box = (49.81919 11.776254 63.383741) to (92.693735 53.242046 104.112)
  create_atoms CPU = 0.000 seconds
create_atoms 1 single 69.55954588936524 42.804 98.87473902578797
Created 1 atoms
  using lattice units in orthogonal box = (49.81919 11.776254 63.383741) to (92.693735 53.242046 104.112)
  create_atoms CPU = 0.000 seconds
create_atoms 4 single 72.97038110262376 44.5509 98.63591358166191
Created 1 atoms
  using lattice units in orthogonal box = (49.81919 11.776254 63.383741) to (92.693735 53.242046 104.112)
  create_atoms CPU = 0.000 seconds
create_atoms 4 single 74.56647313447817 43.0971 97.06746567335244
Created 1 atoms
  using lattice units in orthogonal box = (49.81919 11.776254 63.383741) to (92.693735 53.242046 104.112)
  create_atoms CPU = 0.000 seconds
create_atoms 4 single 75.51198921060433 45.5556 97.50963449856734
Created 1 atoms
  using lattice units in orthogonal box = (49.81919 11.776254 63.383741) to (92.693735 53.242046 104.112)
  create_atoms CPU = 0.000 seconds
create_atoms 1 single 75.37750092812954 42.202 99.85647644699141
Created 1 atoms
  using lattice units in orthogonal box = (49.81919 11.776254 63.383741) to (92.693735 53.242046 104.112)
  create_atoms CPU = 0.000 seconds
create_atoms 2 single 77.3887332116498 43.7553 99.07376022922637
Created 1 atoms
  using lattice units in orthogonal box = (49.81919 11.776254 63.383741) to (92.693735 53.242046 104.112)
  create_atoms CPU = 0.000 seconds
create_atoms 5 single 79.63259037764499 42.4573 98.3095389111748
Created 1 atoms
  using lattice units in orthogonal box = (49.81919 11.776254 63.383741) to (92.693735 53.242046 104.112)
  create_atoms CPU = 0.000 seconds
create_atoms 4 single 80.03739179579892 44.9918 97.14556641833812
Created 1 atoms
  using lattice units in orthogonal box = (49.81919 11.776254 63.383741) to (92.693735 53.242046 104.112)
  create_atoms CPU = 0.000 seconds
group surface id  1 2 3 4 5 6 7 8 9 10 11 13 14 15 16 18 19 22 24 26 27 28 29 30 31 32 35 36 37 40 41 45 47 49 51 52 54 56 57 58 59 60 61 62 63 66 67 68 69 75 76 81 83 84 85 86 87 88 89 91 92 93 96 98 100 101 102 103 104 105 106 107 108 109 110 111 112 113 114 115 116 117 120 121 126 127 132 135 137 138 139 140 141 142 144 145 168 175 176 177 179 180 181 183 212 216 219 220 221 225 254 256 258 259 260 262 263 264 265 287 291 293 295 296 297 298 299 300 301 307 308 309 316 318 319 321 323 324 325 326 327 328 329 330 331 332 333 334 335 336 337 338 340 342 343 345 347 348 349 350 351 352 353 354 357 358 381 386 388 389 390 391 392 393 428 431 432 434 435 436 438 441 442 486 488 489 490 493 495 498 499 539 540 541 542 544 546 547 549 584 588 589 590 591 592 593 594 598 624 625 626 627 628 629 630 631 634 635 636 639 641 642 644 646 647 648 649 650 651 652 653 654 656 658 659 663 664 666 667 670 673 675 676 678 679 680 681 682 683 713 714 718 720 722 725 728 767 768 769 770 772 773 774 778 779 822 823 825 827 829 831 873 874 877 879 881 882 884 886 925 926 927 928 929 930 933 934 937 968 971 972 973 974 975 976 979 980 981 982 985 986 987 991 993 994 997 998 999 1000 1001 1002 1003 1004 1005 1006 1008 1009 1011 1012 1013 1015 1016 1017 1018 1019 1020 1021 1022 1023 1024 1025 1028 1029 1051 1054 1056 1057 1058 1059 1060 1063 1106 1107 1108 1109 1110 1111 1113 1114 1155 1157 1158 1160 1164 1165 1167 1168 1211 1213 1214 1216 1217 1218 1262 1263 1264 1265 1268 1269 1295 1297 1299 1301 1302 1303 1304 1305 1306 1307 1308 1309 1312 1314 1317 1319 1320 1321 1324 1325 1326 1327 1328 1329 1330 1331 1332 1333 1335 1336 1337 1339 1340 1344 1345 1348 1350 1352 1356 1357 1361 1365 1368 1369 1370 1371 1372 1373 1377 1378 1379 1410 1414 1416 1417 1418 1421 1422 1428 1463 1465 1466 1468 1469 1474 1510 1511 1512 1513 1514 1515 1516 1521 1524 1525 1550 1552 1554 1555 1556 1557 1558 1559 1560 1565 1573 1584 1585 1586 1587 1588 1589 1590 1591 1592 1593 1594 1595 1597 1599 1600 1601 1602 1603 1604 1605 1606 1607 1608 1609 1610 1611 1612 1613 1614 1615 1616 1617 1620 1621 1623 1626 1628 1629 1630 1631 1632 1635 1637 1638 1639 1640 1641 1642 1646 1647 1648 1649 1656 1658 1664 1665 1667 1668 1669 1671 1672 1673 1674 1675 1677 1681 1682 1683 1684 1687 1688 1689 1692 1695 1696 1698 1702 1703 1704 1705 1706 1707 1708 1709 1710 1711 1714 1715 1716 1718 1720 1721 1725 1726 1727 1728 1730 1731 1732 1733 1734 1735 1736 1738 1739 1740 1741 1742 
563 atoms in group surface
    fix freeze surface setforce 0 0 0 
    minimize 0 1e-4 100000 100000
Neighbor list info ...
  update: every = 1 steps, delay = 0 steps, check = yes
  max neighbors/atom: 2000, page size: 100000
  master list distance cutoff = 9.1553683
  ghost atom cutoff = 9.1553683
  binsize = 4.5776842, bins = 10 10 9
  1 neighbor lists, perpetual/occasional/extra = 1 0 0
  (1) pair eam/alloy, perpetual
      attributes: half, newton on
      pair build: half/bin/atomonly/newton
      stencil: half/bin/3d
      bin: standard
Per MPI rank memory allocation (min/avg/max) = 4.067 | 4.412 | 4.478 Mbytes
   Step          Temp          E_pair         E_mol          TotEng         Press          Volume    
         0   0             -9097.3602      0             -9097.3602      12597.17       53493.446    
       481   0             -9196.8755      0             -9196.8755      4955.6964      53493.446    
Loop time of 0.182539 on 96 procs for 481 steps with 1742 atoms

99.8% CPU use with 96 MPI tasks x 1 OpenMP threads

Minimization stats:
  Stopping criterion = linesearch alpha is zero
  Energy initial, next-to-last, final = 
     -9097.36019929781  -9196.87553846109  -9196.87553846109
  Force two-norm initial, final = 26.485437 0.025448393
  Force max component initial, final = 1.7799641 0.0099649331
  Final line search alpha, max atom move = 1.5258789e-05 1.5205281e-07
  Iterations, force evaluations = 481 965

MPI task timing breakdown:
Section |  min time  |  avg time  |  max time  |%varavg| %total
---------------------------------------------------------------
Pair    | 0.059507   | 0.086907   | 0.12575    |   7.2 | 47.61
Neigh   | 1.9745e-05 | 0.00035783 | 0.000925   |   0.0 |  0.20
Comm    | 0.030832   | 0.063519   | 0.092139   |   7.3 | 34.80
Output  | 0          | 0          | 0          |   0.0 |  0.00
Modify  | 4.813e-05  | 9.2388e-05 | 0.00017915 |   0.0 |  0.05
Other   |            | 0.03166    |            |       | 17.35

Nlocal:        18.1458 ave          35 max           0 min
Histogram: 20 3 12 4 2 7 8 7 23 10
Nghost:        416.938 ave         891 max         116 min
Histogram: 7 17 16 17 11 12 4 4 1 7
Neighs:         1204.8 ave        3034 max           0 min
Histogram: 25 11 10 6 7 8 8 6 4 11

Total # of neighbors = 115661
Ave neighs/atom = 66.395522
Neighbor list builds = 12
Dangerous builds = 0
    unfix freeze
    compute force all property/atom fx fy fz
    dump fcal all custom 1 dump.force id type x y z fx fy fz
    dump_modify fcal sort id
    run 1 
WARNING: No fixes with time integration, atoms won't move (src/verlet.cpp:60)
Per MPI rank memory allocation (min/avg/max) = 2.959 | 3.307 | 3.37 Mbytes
   Step          Temp          E_pair         E_mol          TotEng         Press          Volume    
       481   0             -9196.8755      0             -9196.8755      4955.6964      53493.446    
       482   0             -9196.8755      0             -9196.8755      4955.6964      53493.446    
Loop time of 0.000958166 on 96 procs for 1 steps with 1742 atoms

Performance: 90.172 ns/day, 0.266 hours/ns, 1043.660 timesteps/s, 1.818 Matom-step/s
99.8% CPU use with 96 MPI tasks x 1 OpenMP threads

MPI task timing breakdown:
Section |  min time  |  avg time  |  max time  |%varavg| %total
---------------------------------------------------------------
Pair    | 8.4022e-05 | 0.00012699 | 0.0002079  |   0.0 | 13.25
Neigh   | 0          | 0          | 0          |   0.0 |  0.00
Comm    | 3.7464e-05 | 0.00010373 | 0.00015113 |   0.0 | 10.83
Output  | 0.00017654 | 0.00040506 | 0.00078186 |   0.0 | 42.27
Modify  | 1.86e-07   | 2.9741e-07 | 8.11e-07   |   0.0 |  0.03
Other   |            | 0.0003221  |            |       | 33.61

Nlocal:        18.1458 ave          35 max           0 min
Histogram: 20 3 12 4 3 7 6 9 22 10
Nghost:        416.354 ave         888 max         118 min
Histogram: 7 17 16 16 12 12 4 4 1 7
Neighs:           1204 ave        3106 max           0 min
Histogram: 25 12 9 6 7 9 9 6 5 8

Total # of neighbors = 115584
Ave neighs/atom = 66.35132
Neighbor list builds = 0
Dangerous builds = 0
