LAMMPS (2 Aug 2023)
WARNING: Using I/O redirection is unreliable with parallel runs. Better to use the -in switch to read input files. (src/lammps.cpp:537)
OMP_NUM_THREADS environment is not set. Defaulting to 1 thread. (src/comm.cpp:98)
  using 1 OpenMP thread(s) per MPI task

    dimension 3
    units metal
    boundary s s s
    atom_style atomic
    timestep 0.001
    region myregion block 35.52315581661891 79.53096641833811 42.4816 85.2122 67.83047983878393 112.37897509826841  units box
    create_box 5 myregion
Created orthogonal box = (35.523156 42.4816 67.83048) to (79.530966 85.2122 112.37898)
  4 by 4 by 6 MPI processor grid
    mass 1 91.224
    mass 2 63.546
    mass 3 58.693
    mass 4 26.982
    mass 5 47.867 
    pair_style eam/alloy
    pair_coeff * * ZrTiCuNiAl_Zhou04.eam.alloy Zr Cu Ni Al Ti
Reading eam/alloy potential file ZrTiCuNiAl_Zhou04.eam.alloy with DATE: 2018-03-30
    create_atoms 1 single 49.79131363896848 52.7271 74.75083614546183
Created 1 atoms
  using lattice units in orthogonal box = (35.518755 42.477327 67.826025) to (79.535367 85.216473 112.38343)
  create_atoms CPU = 0.000 seconds
create_atoms 2 single 52.10881988538682 54.0843 74.37001316194088
Created 1 atoms
  using lattice units in orthogonal box = (35.518755 42.477327 67.826025) to (79.535367 85.216473 112.38343)
  create_atoms CPU = 0.000 seconds
create_atoms 4 single 52.704937249283674 51.4005 74.55047629989986
Created 1 atoms
  using lattice units in orthogonal box = (35.518755 42.477327 67.826025) to (79.535367 85.216473 112.38343)
  create_atoms CPU = 0.000 seconds
create_atoms 1 single 57.6802223495702 53.5519 74.4156761058897
Created 1 atoms
  using lattice units in orthogonal box = (35.518755 42.477327 67.826025) to (79.535367 85.216473 112.38343)
  create_atoms CPU = 0.000 seconds
create_atoms 5 single 49.13492578796562 58.4655 71.97633975376486
Created 1 atoms
  using lattice units in orthogonal box = (35.518755 42.477327 67.826025) to (79.535367 85.216473 112.38343)
  create_atoms CPU = 0.000 seconds
create_atoms 2 single 47.96021065902579 56.7258 74.02948101131594
Created 1 atoms
  using lattice units in orthogonal box = (35.518755 42.477327 67.826025) to (79.535367 85.216473 112.38343)
  create_atoms CPU = 0.000 seconds
create_atoms 1 single 52.301748366762176 58.0486 71.98698449233245
Created 1 atoms
  using lattice units in orthogonal box = (35.518755 42.477327 67.826025) to (79.535367 85.216473 112.38343)
  create_atoms CPU = 0.000 seconds
create_atoms 1 single 53.6326953008596 56.2713 74.10419314836511
Created 1 atoms
  using lattice units in orthogonal box = (35.518755 42.477327 67.826025) to (79.535367 85.216473 112.38343)
  create_atoms CPU = 0.000 seconds
create_atoms 1 single 50.47184613180516 56.1436 73.22535557354168
Created 1 atoms
  using lattice units in orthogonal box = (35.518755 42.477327 67.826025) to (79.535367 85.216473 112.38343)
  create_atoms CPU = 0.000 seconds
create_atoms 2 single 55.7461817765043 55.1624 72.99365841350503
Created 1 atoms
  using lattice units in orthogonal box = (35.518755 42.477327 67.826025) to (79.535367 85.216473 112.38343)
  create_atoms CPU = 0.000 seconds
create_atoms 1 single 58.370094555873926 56.4421 73.70685589753369
Created 1 atoms
  using lattice units in orthogonal box = (35.518755 42.477327 67.826025) to (79.535367 85.216473 112.38343)
  create_atoms CPU = 0.000 seconds
create_atoms 1 single 55.72139209169055 58.0627 72.96679785824101
Created 1 atoms
  using lattice units in orthogonal box = (35.518755 42.477327 67.826025) to (79.535367 85.216473 112.38343)
  create_atoms CPU = 0.000 seconds
create_atoms 1 single 61.15259449856734 55.1154 74.210441566965
Created 1 atoms
  using lattice units in orthogonal box = (35.518755 42.477327 67.826025) to (79.535367 85.216473 112.38343)
  create_atoms CPU = 0.000 seconds
create_atoms 4 single 63.149654727793695 57.8303 73.72376809899622
Created 1 atoms
  using lattice units in orthogonal box = (35.518755 42.477327 67.826025) to (79.535367 85.216473 112.38343)
  create_atoms CPU = 0.000 seconds
create_atoms 2 single 60.38851421203438 57.8025 72.49255983252408
Created 1 atoms
  using lattice units in orthogonal box = (35.518755 42.477327 67.826025) to (79.535367 85.216473 112.38343)
  create_atoms CPU = 0.000 seconds
create_atoms 1 single 44.32117713467049 61.9164 74.37717597667795
Created 1 atoms
  using lattice units in orthogonal box = (35.518755 42.477327 67.826025) to (79.535367 85.216473 112.38343)
  create_atoms CPU = 0.000 seconds
create_atoms 1 single 48.61125478510029 61.24 72.69938610805701
Created 1 atoms
  using lattice units in orthogonal box = (35.518755 42.477327 67.826025) to (79.535367 85.216473 112.38343)
  create_atoms CPU = 0.000 seconds
create_atoms 1 single 46.38934286532952 59.8082 74.15393491737255
Created 1 atoms
  using lattice units in orthogonal box = (35.518755 42.477327 67.826025) to (79.535367 85.216473 112.38343)
  create_atoms CPU = 0.000 seconds
create_atoms 1 single 46.67750418338109 63.2723 73.64706629118675
Created 1 atoms
  using lattice units in orthogonal box = (35.518755 42.477327 67.826025) to (79.535367 85.216473 112.38343)
  create_atoms CPU = 0.000 seconds
create_atoms 2 single 51.08960045845272 59.803 73.39636777538925
Created 1 atoms
  using lattice units in orthogonal box = (35.518755 42.477327 67.826025) to (79.535367 85.216473 112.38343)
  create_atoms CPU = 0.000 seconds
create_atoms 1 single 54.013997707736394 60.4507 71.52866383269792
Created 1 atoms
  using lattice units in orthogonal box = (35.518755 42.477327 67.826025) to (79.535367 85.216473 112.38343)
  create_atoms CPU = 0.000 seconds
create_atoms 1 single 50.98290498567336 60.7106 70.93683626504739
Created 1 atoms
  using lattice units in orthogonal box = (35.518755 42.477327 67.826025) to (79.535367 85.216473 112.38343)
  create_atoms CPU = 0.000 seconds
create_atoms 1 single 52.961356618911175 63.279 70.81974414080389
Created 1 atoms
  using lattice units in orthogonal box = (35.518755 42.477327 67.826025) to (79.535367 85.216473 112.38343)
  create_atoms CPU = 0.000 seconds
create_atoms 3 single 50.60433266475645 62.9987 72.13203149075815
Created 1 atoms
  using lattice units in orthogonal box = (35.518755 42.477327 67.826025) to (79.535367 85.216473 112.38343)
  create_atoms CPU = 0.000 seconds
create_atoms 2 single 53.794771174785105 59.3219 74.14965712523791
Created 1 atoms
  using lattice units in orthogonal box = (35.518755 42.477327 67.826025) to (79.535367 85.216473 112.38343)
  create_atoms CPU = 0.000 seconds
create_atoms 4 single 52.646141833810894 61.7747 73.4969456323223
Created 1 atoms
  using lattice units in orthogonal box = (35.518755 42.477327 67.826025) to (79.535367 85.216473 112.38343)
  create_atoms CPU = 0.000 seconds
create_atoms 1 single 54.552763954154734 63.7433 73.36990515427729
Created 1 atoms
  using lattice units in orthogonal box = (35.518755 42.477327 67.826025) to (79.535367 85.216473 112.38343)
  create_atoms CPU = 0.000 seconds
create_atoms 3 single 56.76799587392551 60.0937 71.49871928775543
Created 1 atoms
  using lattice units in orthogonal box = (35.518755 42.477327 67.826025) to (79.535367 85.216473 112.38343)
  create_atoms CPU = 0.000 seconds
create_atoms 1 single 56.04866899713467 61.2097 73.84284989400004
Created 1 atoms
  using lattice units in orthogonal box = (35.518755 42.477327 67.826025) to (79.535367 85.216473 112.38343)
  create_atoms CPU = 0.000 seconds
create_atoms 3 single 58.22514905444127 62.0348 72.54070986492327
Created 1 atoms
  using lattice units in orthogonal box = (35.518755 42.477327 67.826025) to (79.535367 85.216473 112.38343)
  create_atoms CPU = 0.000 seconds
create_atoms 2 single 55.91048916905444 62.6245 71.39465950699187
Created 1 atoms
  using lattice units in orthogonal box = (35.518755 42.477327 67.826025) to (79.535367 85.216473 112.38343)
  create_atoms CPU = 0.000 seconds
create_atoms 4 single 59.72549719197708 60.4227 71.37376796400875
Created 1 atoms
  using lattice units in orthogonal box = (35.518755 42.477327 67.826025) to (79.535367 85.216473 112.38343)
  create_atoms CPU = 0.000 seconds
create_atoms 1 single 58.541618739255014 59.4556 73.67860257273746
Created 1 atoms
  using lattice units in orthogonal box = (35.518755 42.477327 67.826025) to (79.535367 85.216473 112.38343)
  create_atoms CPU = 0.000 seconds
create_atoms 2 single 57.24553042979942 63.6435 74.23839644114719
Created 1 atoms
  using lattice units in orthogonal box = (35.518755 42.477327 67.826025) to (79.535367 85.216473 112.38343)
  create_atoms CPU = 0.000 seconds
create_atoms 1 single 61.522458223495704 60.3157 73.90562400648741
Created 1 atoms
  using lattice units in orthogonal box = (35.518755 42.477327 67.826025) to (79.535367 85.216473 112.38343)
  create_atoms CPU = 0.000 seconds
create_atoms 1 single 60.90794664756447 63.0679 72.51225757305102
Created 1 atoms
  using lattice units in orthogonal box = (35.518755 42.477327 67.826025) to (79.535367 85.216473 112.38343)
  create_atoms CPU = 0.000 seconds
create_atoms 1 single 63.77823994269341 62.1568 73.10259288763132
Created 1 atoms
  using lattice units in orthogonal box = (35.518755 42.477327 67.826025) to (79.535367 85.216473 112.38343)
  create_atoms CPU = 0.000 seconds
create_atoms 1 single 45.191850601719196 65.8162 74.74138520935041
Created 1 atoms
  using lattice units in orthogonal box = (35.518755 42.477327 67.826025) to (79.535367 85.216473 112.38343)
  create_atoms CPU = 0.000 seconds
create_atoms 1 single 49.73771610315187 67.0394 71.84531993419927
Created 1 atoms
  using lattice units in orthogonal box = (35.518755 42.477327 67.826025) to (79.535367 85.216473 112.38343)
  create_atoms CPU = 0.000 seconds
create_atoms 2 single 48.88204458452722 64.5618 72.93426674131014
Created 1 atoms
  using lattice units in orthogonal box = (35.518755 42.477327 67.826025) to (79.535367 85.216473 112.38343)
  create_atoms CPU = 0.000 seconds
create_atoms 2 single 47.280311805157595 66.5242 73.33210140983164
Created 1 atoms
  using lattice units in orthogonal box = (35.518755 42.477327 67.826025) to (79.535367 85.216473 112.38343)
  create_atoms CPU = 0.000 seconds
create_atoms 1 single 49.69865272206304 67.3362 74.6837842408398
Created 1 atoms
  using lattice units in orthogonal box = (35.518755 42.477327 67.826025) to (79.535367 85.216473 112.38343)
  create_atoms CPU = 0.000 seconds
create_atoms 3 single 51.186461146131805 65.1713 70.9641942380015
Created 1 atoms
  using lattice units in orthogonal box = (35.518755 42.477327 67.826025) to (79.535367 85.216473 112.38343)
  create_atoms CPU = 0.000 seconds
create_atoms 3 single 53.122049856733526 65.9092 69.83047983878393
Created 1 atoms
  using lattice units in orthogonal box = (35.518755 42.477327 67.826025) to (79.535367 85.216473 112.38343)
  create_atoms CPU = 0.000 seconds
create_atoms 3 single 52.02302670487106 67.7591 70.86291999630235
Created 1 atoms
  using lattice units in orthogonal box = (35.518755 42.477327 67.826025) to (79.535367 85.216473 112.38343)
  create_atoms CPU = 0.000 seconds
create_atoms 3 single 53.45389908309456 65.9491 72.28891703020761
Created 1 atoms
  using lattice units in orthogonal box = (35.518755 42.477327 67.826025) to (79.535367 85.216473 112.38343)
  create_atoms CPU = 0.000 seconds
create_atoms 1 single 51.548933123209174 65.0547 73.65850689805845
Created 1 atoms
  using lattice units in orthogonal box = (35.518755 42.477327 67.826025) to (79.535367 85.216473 112.38343)
  create_atoms CPU = 0.000 seconds
create_atoms 1 single 52.43377426934097 68.0692 73.51664337284924
Created 1 atoms
  using lattice units in orthogonal box = (35.518755 42.477327 67.826025) to (79.535367 85.216473 112.38343)
  create_atoms CPU = 0.000 seconds
create_atoms 1 single 54.7242906017192 68.1836 71.65132703507027
Created 1 atoms
  using lattice units in orthogonal box = (35.518755 42.477327 67.826025) to (79.535367 85.216473 112.38343)
  create_atoms CPU = 0.000 seconds
create_atoms 1 single 55.56705340974212 65.2881 70.89754026753153
Created 1 atoms
  using lattice units in orthogonal box = (35.518755 42.477327 67.826025) to (79.535367 85.216473 112.38343)
  create_atoms CPU = 0.000 seconds
create_atoms 1 single 58.39823037249284 64.7266 72.31159927687501
Created 1 atoms
  using lattice units in orthogonal box = (35.518755 42.477327 67.826025) to (79.535367 85.216473 112.38343)
  create_atoms CPU = 0.000 seconds
create_atoms 2 single 57.86707575931233 67.3454 71.53373749313668
Created 1 atoms
  using lattice units in orthogonal box = (35.518755 42.477327 67.826025) to (79.535367 85.216473 112.38343)
  create_atoms CPU = 0.000 seconds
create_atoms 1 single 56.15781283667622 66.1409 73.64189314720997
Created 1 atoms
  using lattice units in orthogonal box = (35.518755 42.477327 67.826025) to (79.535367 85.216473 112.38343)
  create_atoms CPU = 0.000 seconds
create_atoms 1 single 58.91292080229226 66.9323 74.64538359516605
Created 1 atoms
  using lattice units in orthogonal box = (35.518755 42.477327 67.826025) to (79.535367 85.216473 112.38343)
  create_atoms CPU = 0.000 seconds
create_atoms 2 single 57.06789444126075 68.6551 73.32523704570862
Created 1 atoms
  using lattice units in orthogonal box = (35.518755 42.477327 67.826025) to (79.535367 85.216473 112.38343)
  create_atoms CPU = 0.000 seconds
create_atoms 1 single 60.83599467048711 66.6548 72.69968455867105
Created 1 atoms
  using lattice units in orthogonal box = (35.518755 42.477327 67.826025) to (79.535367 85.216473 112.38343)
  create_atoms CPU = 0.000 seconds
create_atoms 1 single 63.21116091690545 65.053 74.02012955874254
Created 1 atoms
  using lattice units in orthogonal box = (35.518755 42.477327 67.826025) to (79.535367 85.216473 112.38343)
  create_atoms CPU = 0.000 seconds
create_atoms 2 single 60.45026670487106 64.6474 74.54321400162478
Created 1 atoms
  using lattice units in orthogonal box = (35.518755 42.477327 67.826025) to (79.535367 85.216473 112.38343)
  create_atoms CPU = 0.000 seconds
create_atoms 1 single 63.14482074498567 68.1417 74.45457416925352
Created 1 atoms
  using lattice units in orthogonal box = (35.518755 42.477327 67.826025) to (79.535367 85.216473 112.38343)
  create_atoms CPU = 0.000 seconds
create_atoms 1 single 45.78749398280803 68.8131 73.88194692443987
Created 1 atoms
  using lattice units in orthogonal box = (35.518755 42.477327 67.826025) to (79.535367 85.216473 112.38343)
  create_atoms CPU = 0.000 seconds
create_atoms 2 single 48.20727782234957 69.03 72.67411728940124
Created 1 atoms
  using lattice units in orthogonal box = (35.518755 42.477327 67.826025) to (79.535367 85.216473 112.38343)
  create_atoms CPU = 0.000 seconds
create_atoms 1 single 48.84961186246419 71.6684 73.34931206190821
Created 1 atoms
  using lattice units in orthogonal box = (35.518755 42.477327 67.826025) to (79.535367 85.216473 112.38343)
  create_atoms CPU = 0.000 seconds
create_atoms 1 single 46.15866544412607 71.8593 74.33817842977612
Created 1 atoms
  using lattice units in orthogonal box = (35.518755 42.477327 67.826025) to (79.535367 85.216473 112.38343)
  create_atoms CPU = 0.000 seconds
create_atoms 1 single 50.7599311747851 69.9618 71.8581533106032
Created 1 atoms
  using lattice units in orthogonal box = (35.518755 42.477327 67.826025) to (79.535367 85.216473 112.38343)
  create_atoms CPU = 0.000 seconds
create_atoms 1 single 51.83169931232092 72.4187 73.3993522815297
Created 1 atoms
  using lattice units in orthogonal box = (35.518755 42.477327 67.826025) to (79.535367 85.216473 112.38343)
  create_atoms CPU = 0.000 seconds
create_atoms 3 single 50.623405157593126 69.8319 74.4604436979964
Created 1 atoms
  using lattice units in orthogonal box = (35.518755 42.477327 67.826025) to (79.535367 85.216473 112.38343)
  create_atoms CPU = 0.000 seconds
create_atoms 4 single 55.32225833810889 68.7452 74.80803917982038
Created 1 atoms
  using lattice units in orthogonal box = (35.518755 42.477327 67.826025) to (79.535367 85.216473 112.38343)
  create_atoms CPU = 0.000 seconds
create_atoms 1 single 54.57976676217765 70.991 72.99803568917767
Created 1 atoms
  using lattice units in orthogonal box = (35.518755 42.477327 67.826025) to (79.535367 85.216473 112.38343)
  create_atoms CPU = 0.000 seconds
create_atoms 1 single 59.68502899713467 69.4177 73.11373504388898
Created 1 atoms
  using lattice units in orthogonal box = (35.518755 42.477327 67.826025) to (79.535367 85.216473 112.38343)
  create_atoms CPU = 0.000 seconds
create_atoms 3 single 57.253876332378226 70.8702 72.40023910924627
Created 1 atoms
  using lattice units in orthogonal box = (35.518755 42.477327 67.826025) to (79.535367 85.216473 112.38343)
  create_atoms CPU = 0.000 seconds
create_atoms 1 single 57.15845621776504 73.013 73.99764627915118
Created 1 atoms
  using lattice units in orthogonal box = (35.518755 42.477327 67.826025) to (79.535367 85.216473 112.38343)
  create_atoms CPU = 0.000 seconds
create_atoms 2 single 59.68361329512894 72.0782 73.95317713765853
Created 1 atoms
  using lattice units in orthogonal box = (35.518755 42.477327 67.826025) to (79.535367 85.216473 112.38343)
  create_atoms CPU = 0.000 seconds
create_atoms 1 single 62.2211064756447 70.969 74.33549237424971
Created 1 atoms
  using lattice units in orthogonal box = (35.518755 42.477327 67.826025) to (79.535367 85.216473 112.38343)
  create_atoms CPU = 0.000 seconds
create_atoms 1 single 49.528491232091696 74.1618 74.79182336312395
Created 1 atoms
  using lattice units in orthogonal box = (35.518755 42.477327 67.826025) to (79.535367 85.216473 112.38343)
  create_atoms CPU = 0.000 seconds
create_atoms 1 single 54.49591679083095 74.2046 73.96143427131376
Created 1 atoms
  using lattice units in orthogonal box = (35.518755 42.477327 67.826025) to (79.535367 85.216473 112.38343)
  create_atoms CPU = 0.000 seconds
create_atoms 1 single 52.77296836676218 48.6828 78.51429838856468
Created 1 atoms
  using lattice units in orthogonal box = (35.518755 42.477327 67.826025) to (79.535367 85.216473 112.38343)
  create_atoms CPU = 0.000 seconds
create_atoms 5 single 57.15049421203439 49.1922 78.29075887864526
Created 1 atoms
  using lattice units in orthogonal box = (35.518755 42.477327 67.826025) to (79.535367 85.216473 112.38343)
  create_atoms CPU = 0.000 seconds
create_atoms 1 single 45.22495954154728 53.2802 77.42624693329596
Created 1 atoms
  using lattice units in orthogonal box = (35.518755 42.477327 67.826025) to (79.535367 85.216473 112.38343)
  create_atoms CPU = 0.000 seconds
create_atoms 1 single 47.76173702005731 51.5047 76.39122020378917
Created 1 atoms
  using lattice units in orthogonal box = (35.518755 42.477327 67.826025) to (79.535367 85.216473 112.38343)
  create_atoms CPU = 0.000 seconds
create_atoms 3 single 50.04201742120344 52.87 77.44912814703939
Created 1 atoms
  using lattice units in orthogonal box = (35.518755 42.477327 67.826025) to (79.535367 85.216473 112.38343)
  create_atoms CPU = 0.000 seconds
create_atoms 1 single 48.00073679083095 53.3936 78.75276042918637
Created 1 atoms
  using lattice units in orthogonal box = (35.518755 42.477327 67.826025) to (79.535367 85.216473 112.38343)
  create_atoms CPU = 0.000 seconds
create_atoms 1 single 46.466914269340975 50.8033 78.9329251165313
Created 1 atoms
  using lattice units in orthogonal box = (35.518755 42.477327 67.826025) to (79.535367 85.216473 112.38343)
  create_atoms CPU = 0.000 seconds
create_atoms 1 single 49.4677923782235 50.5453 78.95520942904663
Created 1 atoms
  using lattice units in orthogonal box = (35.518755 42.477327 67.826025) to (79.535367 85.216473 112.38343)
  create_atoms CPU = 0.000 seconds
create_atoms 1 single 50.990810487106025 50.469 76.58183066262568
Created 1 atoms
  using lattice units in orthogonal box = (35.518755 42.477327 67.826025) to (79.535367 85.216473 112.38343)
  create_atoms CPU = 0.000 seconds
create_atoms 2 single 54.12214292263611 50.478 76.94872595082455
Created 1 atoms
  using lattice units in orthogonal box = (35.518755 42.477327 67.826025) to (79.535367 85.216473 112.38343)
  create_atoms CPU = 0.000 seconds
create_atoms 1 single 52.64276934097422 53.0286 76.89729296167084
Created 1 atoms
  using lattice units in orthogonal box = (35.518755 42.477327 67.826025) to (79.535367 85.216473 112.38343)
  create_atoms CPU = 0.000 seconds
create_atoms 4 single 55.41062137535817 52.4747 78.1158668188151
Created 1 atoms
  using lattice units in orthogonal box = (35.518755 42.477327 67.826025) to (79.535367 85.216473 112.38343)
  create_atoms CPU = 0.000 seconds
create_atoms 1 single 55.01527782234957 50.2651 79.79166701667575
Created 1 atoms
  using lattice units in orthogonal box = (35.518755 42.477327 67.826025) to (79.535367 85.216473 112.38343)
  create_atoms CPU = 0.000 seconds
create_atoms 1 single 52.30323896848138 51.5157 79.40676520809618
Created 1 atoms
  using lattice units in orthogonal box = (35.518755 42.477327 67.826025) to (79.535367 85.216473 112.38343)
  create_atoms CPU = 0.000 seconds
create_atoms 1 single 54.88230269340974 53.5008 75.28277462322738
Created 1 atoms
  using lattice units in orthogonal box = (35.518755 42.477327 67.826025) to (79.535367 85.216473 112.38343)
  create_atoms CPU = 0.000 seconds
create_atoms 3 single 60.1975805730659 52.7768 75.23621632743642
Created 1 atoms
  using lattice units in orthogonal box = (35.518755 42.477327 67.826025) to (79.535367 85.216473 112.38343)
  create_atoms CPU = 0.000 seconds
create_atoms 2 single 57.4222906017192 54.0482 77.2064877978211
Created 1 atoms
  using lattice units in orthogonal box = (35.518755 42.477327 67.826025) to (79.535367 85.216473 112.38343)
  create_atoms CPU = 0.000 seconds
create_atoms 1 single 57.14523742120344 51.4732 76.33809599448921
Created 1 atoms
  using lattice units in orthogonal box = (35.518755 42.477327 67.826025) to (79.535367 85.216473 112.38343)
  create_atoms CPU = 0.000 seconds
create_atoms 1 single 60.04089833810888 53.0854 77.79393808979896
Created 1 atoms
  using lattice units in orthogonal box = (35.518755 42.477327 67.826025) to (79.535367 85.216473 112.38343)
  create_atoms CPU = 0.000 seconds
create_atoms 4 single 59.7797176504298 50.3139 76.82357566000182
Created 1 atoms
  using lattice units in orthogonal box = (35.518755 42.477327 67.826025) to (79.535367 85.216473 112.38343)
  create_atoms CPU = 0.000 seconds
create_atoms 5 single 58.0560805730659 51.7246 79.22898812566358
Created 1 atoms
  using lattice units in orthogonal box = (35.518755 42.477327 67.826025) to (79.535367 85.216473 112.38343)
  create_atoms CPU = 0.000 seconds
create_atoms 1 single 60.28330481375358 49.8053 79.73874177445182
Created 1 atoms
  using lattice units in orthogonal box = (35.518755 42.477327 67.826025) to (79.535367 85.216473 112.38343)
  create_atoms CPU = 0.000 seconds
create_atoms 3 single 62.06375065902579 51.258 78.0569725643103
Created 1 atoms
  using lattice units in orthogonal box = (35.518755 42.477327 67.826025) to (79.535367 85.216473 112.38343)
  create_atoms CPU = 0.000 seconds
create_atoms 2 single 64.47089776504298 51.7349 79.01062175972092
Created 1 atoms
  using lattice units in orthogonal box = (35.518755 42.477327 67.826025) to (79.535367 85.216473 112.38343)
  create_atoms CPU = 0.000 seconds
create_atoms 1 single 62.828642636103154 53.1009 76.16827759509782
Created 1 atoms
  using lattice units in orthogonal box = (35.518755 42.477327 67.826025) to (79.535367 85.216473 112.38343)
  create_atoms CPU = 0.000 seconds
create_atoms 2 single 62.722328882521495 53.792 78.63447450248667
Created 1 atoms
  using lattice units in orthogonal box = (35.518755 42.477327 67.826025) to (79.535367 85.216473 112.38343)
  create_atoms CPU = 0.000 seconds
create_atoms 1 single 65.42143306590258 53.991 77.98126559188097
Created 1 atoms
  using lattice units in orthogonal box = (35.518755 42.477327 67.826025) to (79.535367 85.216473 112.38343)
  create_atoms CPU = 0.000 seconds
create_atoms 4 single 43.365667679083096 56.7438 77.09257914679407
Created 1 atoms
  using lattice units in orthogonal box = (35.518755 42.477327 67.826025) to (79.535367 85.216473 112.38343)
  create_atoms CPU = 0.000 seconds
create_atoms 4 single 45.546665157593125 58.8474 78.07129819378444
Created 1 atoms
  using lattice units in orthogonal box = (35.518755 42.477327 67.826025) to (79.535367 85.216473 112.38343)
  create_atoms CPU = 0.000 seconds
create_atoms 1 single 43.84504504297994 54.9106 79.32150781601742
Created 1 atoms
  using lattice units in orthogonal box = (35.518755 42.477327 67.826025) to (79.535367 85.216473 112.38343)
  create_atoms CPU = 0.000 seconds
create_atoms 2 single 44.420784928366764 57.625 79.6690038143034
Created 1 atoms
  using lattice units in orthogonal box = (35.518755 42.477327 67.826025) to (79.535367 85.216473 112.38343)
  create_atoms CPU = 0.000 seconds
create_atoms 1 single 45.823807048710606 57.2312 75.54919153803124
Created 1 atoms
  using lattice units in orthogonal box = (35.518755 42.477327 67.826025) to (79.535367 85.216473 112.38343)
  create_atoms CPU = 0.000 seconds
create_atoms 1 single 50.23444481375358 55.3485 75.95428850482782
Created 1 atoms
  using lattice units in orthogonal box = (35.518755 42.477327 67.826025) to (79.535367 85.216473 112.38343)
  create_atoms CPU = 0.000 seconds
create_atoms 1 single 47.413183954154725 54.5466 75.90444725228237
Created 1 atoms
  using lattice units in orthogonal box = (35.518755 42.477327 67.826025) to (79.535367 85.216473 112.38343)
  create_atoms CPU = 0.000 seconds
create_atoms 3 single 49.12755088825215 55.7345 78.29941394645256
Created 1 atoms
  using lattice units in orthogonal box = (35.518755 42.477327 67.826025) to (79.535367 85.216473 112.38343)
  create_atoms CPU = 0.000 seconds
create_atoms 3 single 48.38929593123209 57.1743 76.55029438107495
Created 1 atoms
  using lattice units in orthogonal box = (35.518755 42.477327 67.826025) to (79.535367 85.216473 112.38343)
  create_atoms CPU = 0.000 seconds
create_atoms 1 single 46.43278573065903 56.0691 78.34756397885175
Created 1 atoms
  using lattice units in orthogonal box = (35.518755 42.477327 67.826025) to (79.535367 85.216473 112.38343)
  create_atoms CPU = 0.000 seconds
create_atoms 1 single 48.4932323209169 58.3071 79.14631730557322
Created 1 atoms
  using lattice units in orthogonal box = (35.518755 42.477327 67.826025) to (79.535367 85.216473 112.38343)
  create_atoms CPU = 0.000 seconds
create_atoms 3 single 50.876918681948425 57.0598 79.91094777875558
Created 1 atoms
  using lattice units in orthogonal box = (35.518755 42.477327 67.826025) to (79.535367 85.216473 112.38343)
  create_atoms CPU = 0.000 seconds
create_atoms 3 single 51.71911661891118 57.7903 74.95139495809983
Created 1 atoms
  using lattice units in orthogonal box = (35.518755 42.477327 67.826025) to (79.535367 85.216473 112.38343)
  create_atoms CPU = 0.000 seconds
create_atoms 2 single 54.95559065902579 55.0163 77.74449477140556
Created 1 atoms
  using lattice units in orthogonal box = (35.518755 42.477327 67.826025) to (79.535367 85.216473 112.38343)
  create_atoms CPU = 0.000 seconds
create_atoms 1 single 51.51984464183381 54.7057 78.85383570380948
Created 1 atoms
  using lattice units in orthogonal box = (35.518755 42.477327 67.826025) to (79.535367 85.216473 112.38343)
  create_atoms CPU = 0.000 seconds
create_atoms 2 single 52.834343209169056 55.7248 76.51398288969952
Created 1 atoms
  using lattice units in orthogonal box = (35.518755 42.477327 67.826025) to (79.535367 85.216473 112.38343)
  create_atoms CPU = 0.000 seconds
create_atoms 1 single 51.026178739255016 57.7868 77.46305584236147
Created 1 atoms
  using lattice units in orthogonal box = (35.518755 42.477327 67.826025) to (79.535367 85.216473 112.38343)
  create_atoms CPU = 0.000 seconds
create_atoms 1 single 54.1254758739255 58.076 76.60252323853277
Created 1 atoms
  using lattice units in orthogonal box = (35.518755 42.477327 67.826025) to (79.535367 85.216473 112.38343)
  create_atoms CPU = 0.000 seconds
create_atoms 5 single 53.5575853295129 56.737 79.09508328349557
Created 1 atoms
  using lattice units in orthogonal box = (35.518755 42.477327 67.826025) to (79.535367 85.216473 112.38343)
  create_atoms CPU = 0.000 seconds
create_atoms 3 single 59.23224028653295 55.0842 75.98343718146617
Created 1 atoms
  using lattice units in orthogonal box = (35.518755 42.477327 67.826025) to (79.535367 85.216473 112.38343)
  create_atoms CPU = 0.000 seconds
create_atoms 1 single 56.382381661891124 56.1082 75.73681749072729
Created 1 atoms
  using lattice units in orthogonal box = (35.518755 42.477327 67.826025) to (79.535367 85.216473 112.38343)
  create_atoms CPU = 0.000 seconds
create_atoms 2 single 58.76575495702006 57.4685 76.39659231484197
Created 1 atoms
  using lattice units in orthogonal box = (35.518755 42.477327 67.826025) to (79.535367 85.216473 112.38343)
  create_atoms CPU = 0.000 seconds
create_atoms 1 single 59.19460544412608 55.9804 78.53926875660643
Created 1 atoms
  using lattice units in orthogonal box = (35.518755 42.477327 67.826025) to (79.535367 85.216473 112.38343)
  create_atoms CPU = 0.000 seconds
create_atoms 1 single 57.06342515759313 54.409 79.77256617737689
Created 1 atoms
  using lattice units in orthogonal box = (35.518755 42.477327 67.826025) to (79.535367 85.216473 112.38343)
  create_atoms CPU = 0.000 seconds
create_atoms 1 single 56.52731547277937 57.2211 78.5999537147955
Created 1 atoms
  using lattice units in orthogonal box = (35.518755 42.477327 67.826025) to (79.535367 85.216473 112.38343)
  create_atoms CPU = 0.000 seconds
create_atoms 5 single 60.81723461318052 57.834 75.14757649506517
Created 1 atoms
  using lattice units in orthogonal box = (35.518755 42.477327 67.826025) to (79.535367 85.216473 112.38343)
  create_atoms CPU = 0.000 seconds
create_atoms 1 single 61.14806653295129 58.3075 78.13715629595029
Created 1 atoms
  using lattice units in orthogonal box = (35.518755 42.477327 67.826025) to (79.535367 85.216473 112.38343)
  create_atoms CPU = 0.000 seconds
create_atoms 3 single 63.06918779369627 58.3403 76.53676461990493
Created 1 atoms
  using lattice units in orthogonal box = (35.518755 42.477327 67.826025) to (79.535367 85.216473 112.38343)
  create_atoms CPU = 0.000 seconds
create_atoms 1 single 61.67550395415473 55.6905 77.05019915959971
Created 1 atoms
  using lattice units in orthogonal box = (35.518755 42.477327 67.826025) to (79.535367 85.216473 112.38343)
  create_atoms CPU = 0.000 seconds
create_atoms 1 single 64.27980303724928 56.0874 75.90683485719472
Created 1 atoms
  using lattice units in orthogonal box = (35.518755 42.477327 67.826025) to (79.535367 85.216473 112.38343)
  create_atoms CPU = 0.000 seconds
create_atoms 1 single 64.04590836676218 56.7702 78.89621569100382
Created 1 atoms
  using lattice units in orthogonal box = (35.518755 42.477327 67.826025) to (79.535367 85.216473 112.38343)
  create_atoms CPU = 0.000 seconds
create_atoms 3 single 65.27413363896848 58.7593 77.63257579113882
Created 1 atoms
  using lattice units in orthogonal box = (35.518755 42.477327 67.826025) to (79.535367 85.216473 112.38343)
  create_atoms CPU = 0.000 seconds
create_atoms 3 single 69.3052782808023 57.8433 77.84616694725676
Created 1 atoms
  using lattice units in orthogonal box = (35.518755 42.477327 67.826025) to (79.535367 85.216473 112.38343)
  create_atoms CPU = 0.000 seconds
create_atoms 1 single 67.03744842406877 58.5086 75.82336816880023
Created 1 atoms
  using lattice units in orthogonal box = (35.518755 42.477327 67.826025) to (79.535367 85.216473 112.38343)
  create_atoms CPU = 0.000 seconds
create_atoms 1 single 66.86154487106018 56.5485 77.88108566909999
Created 1 atoms
  using lattice units in orthogonal box = (35.518755 42.477327 67.826025) to (79.535367 85.216473 112.38343)
  create_atoms CPU = 0.000 seconds
create_atoms 1 single 68.41862406876791 54.3713 79.61916256175793
Created 1 atoms
  using lattice units in orthogonal box = (35.518755 42.477327 67.826025) to (79.535367 85.216473 112.38343)
  create_atoms CPU = 0.000 seconds
create_atoms 1 single 39.741936103151865 61.172 79.76142402111921
Created 1 atoms
  using lattice units in orthogonal box = (35.518755 42.477327 67.826025) to (79.535367 85.216473 112.38343)
  create_atoms CPU = 0.000 seconds
create_atoms 1 single 43.7034306017192 59.2906 75.67881858806463
Created 1 atoms
  using lattice units in orthogonal box = (35.518755 42.477327 67.826025) to (79.535367 85.216473 112.38343)
  create_atoms CPU = 0.000 seconds
create_atoms 1 single 42.41462257879656 59.4543 78.47729051242315
Created 1 atoms
  using lattice units in orthogonal box = (35.518755 42.477327 67.826025) to (79.535367 85.216473 112.38343)
  create_atoms CPU = 0.000 seconds
create_atoms 2 single 43.20938767908309 61.6893 76.67594208958775
Created 1 atoms
  using lattice units in orthogonal box = (35.518755 42.477327 67.826025) to (79.535367 85.216473 112.38343)
  create_atoms CPU = 0.000 seconds
create_atoms 3 single 45.66408126074499 60.9154 76.65793556920705
Created 1 atoms
  using lattice units in orthogonal box = (35.518755 42.477327 67.826025) to (79.535367 85.216473 112.38343)
  create_atoms CPU = 0.000 seconds
create_atoms 3 single 41.31493702005731 62.0027 77.95360916831284
Created 1 atoms
  using lattice units in orthogonal box = (35.518755 42.477327 67.826025) to (79.535367 85.216473 112.38343)
  create_atoms CPU = 0.000 seconds
create_atoms 1 single 44.69890573065903 61.3435 79.14611833849719
Created 1 atoms
  using lattice units in orthogonal box = (35.518755 42.477327 67.826025) to (79.535367 85.216473 112.38343)
  create_atoms CPU = 0.000 seconds
create_atoms 1 single 45.956244527220626 63.4395 76.73622911362477
Created 1 atoms
  using lattice units in orthogonal box = (35.518755 42.477327 67.826025) to (79.535367 85.216473 112.38343)
  create_atoms CPU = 0.000 seconds
create_atoms 1 single 49.268814212034385 59.0283 74.92294266622756
Created 1 atoms
  using lattice units in orthogonal box = (35.518755 42.477327 67.826025) to (79.535367 85.216473 112.38343)
  create_atoms CPU = 0.000 seconds
create_atoms 2 single 47.470624355300856 59.3711 76.75403666692944
Created 1 atoms
  using lattice units in orthogonal box = (35.518755 42.477327 67.826025) to (79.535367 85.216473 112.38343)
  create_atoms CPU = 0.000 seconds
create_atoms 1 single 49.84450223495703 60.5597 77.57547224031829
Created 1 atoms
  using lattice units in orthogonal box = (35.518755 42.477327 67.826025) to (79.535367 85.216473 112.38343)
  create_atoms CPU = 0.000 seconds
create_atoms 2 single 47.83214240687679 61.7359 75.7522374391196
Created 1 atoms
  using lattice units in orthogonal box = (35.518755 42.477327 67.826025) to (79.535367 85.216473 112.38343)
  create_atoms CPU = 0.000 seconds
create_atoms 2 single 49.16622985673353 63.2469 77.71186417093669
Created 1 atoms
  using lattice units in orthogonal box = (35.518755 42.477327 67.826025) to (79.535367 85.216473 112.38343)
  create_atoms CPU = 0.000 seconds
create_atoms 1 single 50.19146452722063 62.6022 74.93080186573074
Created 1 atoms
  using lattice units in orthogonal box = (35.518755 42.477327 67.826025) to (79.535367 85.216473 112.38343)
  create_atoms CPU = 0.000 seconds
create_atoms 1 single 47.60569048710602 61.5874 78.90805423202758
Created 1 atoms
  using lattice units in orthogonal box = (35.518755 42.477327 67.826025) to (79.535367 85.216473 112.38343)
  create_atoms CPU = 0.000 seconds
create_atoms 1 single 52.08852022922636 60.3318 75.86206726508802
Created 1 atoms
  using lattice units in orthogonal box = (35.518755 42.477327 67.826025) to (79.535367 85.216473 112.38343)
  create_atoms CPU = 0.000 seconds
create_atoms 3 single 55.73185312320917 59.9349 78.10263550825913
Created 1 atoms
  using lattice units in orthogonal box = (35.518755 42.477327 67.826025) to (79.535367 85.216473 112.38343)
  create_atoms CPU = 0.000 seconds
create_atoms 1 single 53.06715959885387 59.8498 78.65864900222428
Created 1 atoms
  using lattice units in orthogonal box = (35.518755 42.477327 67.826025) to (79.535367 85.216473 112.38343)
  create_atoms CPU = 0.000 seconds
create_atoms 3 single 54.66089759312322 61.025 76.00781064827983
Created 1 atoms
  using lattice units in orthogonal box = (35.518755 42.477327 67.826025) to (79.535367 85.216473 112.38343)
  create_atoms CPU = 0.000 seconds
create_atoms 1 single 51.95120865329513 62.6973 77.76707753453493
Created 1 atoms
  using lattice units in orthogonal box = (35.518755 42.477327 67.826025) to (79.535367 85.216473 112.38343)
  create_atoms CPU = 0.000 seconds
create_atoms 1 single 54.96026968481376 62.4925 78.38934706481801
Created 1 atoms
  using lattice units in orthogonal box = (35.518755 42.477327 67.826025) to (79.535367 85.216473 112.38343)
  create_atoms CPU = 0.000 seconds
create_atoms 4 single 53.31677908309456 63.3063 75.65673324262531
Created 1 atoms
  using lattice units in orthogonal box = (35.518755 42.477327 67.826025) to (79.535367 85.216473 112.38343)
  create_atoms CPU = 0.000 seconds
create_atoms 1 single 59.504767564469915 62.1813 74.97497255660934
Created 1 atoms
  using lattice units in orthogonal box = (35.518755 42.477327 67.826025) to (79.535367 85.216473 112.38343)
  create_atoms CPU = 0.000 seconds
create_atoms 1 single 56.701898223495704 59.1101 75.84993027345021
Created 1 atoms
  using lattice units in orthogonal box = (35.518755 42.477327 67.826025) to (79.535367 85.216473 112.38343)
  create_atoms CPU = 0.000 seconds
create_atoms 2 single 59.49624183381089 59.8281 76.27452601369771
Created 1 atoms
  using lattice units in orthogonal box = (35.518755 42.477327 67.826025) to (79.535367 85.216473 112.38343)
  create_atoms CPU = 0.000 seconds
create_atoms 1 single 57.23589346704871 62.0163 76.6782302109621
Created 1 atoms
  using lattice units in orthogonal box = (35.518755 42.477327 67.826025) to (79.535367 85.216473 112.38343)
  create_atoms CPU = 0.000 seconds
create_atoms 3 single 59.77391507163324 61.7494 77.78508405491564
Created 1 atoms
  using lattice units in orthogonal box = (35.518755 42.477327 67.826025) to (79.535367 85.216473 112.38343)
  create_atoms CPU = 0.000 seconds
create_atoms 1 single 58.413244011461316 59.5351 78.66451853096717
Created 1 atoms
  using lattice units in orthogonal box = (35.518755 42.477327 67.826025) to (79.535367 85.216473 112.38343)
  create_atoms CPU = 0.000 seconds
create_atoms 2 single 58.237630716332376 62.1753 79.358814142773
Created 1 atoms
  using lattice units in orthogonal box = (35.518755 42.477327 67.826025) to (79.535367 85.216473 112.38343)
  create_atoms CPU = 0.000 seconds
create_atoms 1 single 61.10052979942694 60.7315 79.95143757872764
Created 1 atoms
  using lattice units in orthogonal box = (35.518755 42.477327 67.826025) to (79.535367 85.216473 112.38343)
  create_atoms CPU = 0.000 seconds
create_atoms 2 single 62.41634504297995 62.7488 75.15513724395429
Created 1 atoms
  using lattice units in orthogonal box = (35.518755 42.477327 67.826025) to (79.535367 85.216473 112.38343)
  create_atoms CPU = 0.000 seconds
create_atoms 1 single 64.473056504298 60.1896 75.2988909563858
Created 1 atoms
  using lattice units in orthogonal box = (35.518755 42.477327 67.826025) to (79.535367 85.216473 112.38343)
  create_atoms CPU = 0.000 seconds
create_atoms 1 single 62.054952091690545 60.8696 76.92484990170098
Created 1 atoms
  using lattice units in orthogonal box = (35.518755 42.477327 67.826025) to (79.535367 85.216473 112.38343)
  create_atoms CPU = 0.000 seconds
create_atoms 1 single 64.96045426934099 61.5533 77.92605222828271
Created 1 atoms
  using lattice units in orthogonal box = (35.518755 42.477327 67.826025) to (79.535367 85.216473 112.38343)
  create_atoms CPU = 0.000 seconds
create_atoms 2 single 63.52061438395416 59.5975 78.96734642068446
Created 1 atoms
  using lattice units in orthogonal box = (35.518755 42.477327 67.826025) to (79.535367 85.216473 112.38343)
  create_atoms CPU = 0.000 seconds
create_atoms 3 single 62.712651117478515 62.7132 79.06265165010271
Created 1 atoms
  using lattice units in orthogonal box = (35.518755 42.477327 67.826025) to (79.535367 85.216473 112.38343)
  create_atoms CPU = 0.000 seconds
create_atoms 2 single 64.9771094555874 63.8009 79.57041562813066
Created 1 atoms
  using lattice units in orthogonal box = (35.518755 42.477327 67.826025) to (79.535367 85.216473 112.38343)
  create_atoms CPU = 0.000 seconds
create_atoms 1 single 61.009882349570205 63.8328 77.15853673249792
Created 1 atoms
  using lattice units in orthogonal box = (35.518755 42.477327 67.826025) to (79.535367 85.216473 112.38343)
  create_atoms CPU = 0.000 seconds
create_atoms 1 single 69.70259083094555 60.6333 77.2753304061274
Created 1 atoms
  using lattice units in orthogonal box = (35.518755 42.477327 67.826025) to (79.535367 85.216473 112.38343)
  create_atoms CPU = 0.000 seconds
create_atoms 1 single 65.85193610315186 63.3153 75.24785590138416
Created 1 atoms
  using lattice units in orthogonal box = (35.518755 42.477327 67.826025) to (79.535367 85.216473 112.38343)
  create_atoms CPU = 0.000 seconds
create_atoms 1 single 67.66763959885387 63.0059 78.03369341641482
Created 1 atoms
  using lattice units in orthogonal box = (35.518755 42.477327 67.826025) to (79.535367 85.216473 112.38343)
  create_atoms CPU = 0.000 seconds
create_atoms 3 single 67.03857931232092 61.0823 76.24637217243951
Created 1 atoms
  using lattice units in orthogonal box = (35.518755 42.477327 67.826025) to (79.535367 85.216473 112.38343)
  create_atoms CPU = 0.000 seconds
create_atoms 1 single 67.5865341547278 59.7838 78.65546552900781
Created 1 atoms
  using lattice units in orthogonal box = (35.518755 42.477327 67.826025) to (79.535367 85.216473 112.38343)
  create_atoms CPU = 0.000 seconds
create_atoms 3 single 69.57174722063037 61.6861 79.80191382109128
Created 1 atoms
  using lattice units in orthogonal box = (35.518755 42.477327 67.826025) to (79.535367 85.216473 112.38343)
  create_atoms CPU = 0.000 seconds
create_atoms 1 single 70.76998865329513 59.1931 79.91970233010089
Created 1 atoms
  using lattice units in orthogonal box = (35.518755 42.477327 67.826025) to (79.535367 85.216473 112.38343)
  create_atoms CPU = 0.000 seconds
create_atoms 3 single 70.3236070487106 63.1835 77.97957437173471
Created 1 atoms
  using lattice units in orthogonal box = (35.518755 42.477327 67.826025) to (79.535367 85.216473 112.38343)
  create_atoms CPU = 0.000 seconds
create_atoms 3 single 40.09995088825215 68.5648 79.34100658946834
Created 1 atoms
  using lattice units in orthogonal box = (35.518755 42.477327 67.826025) to (79.535367 85.216473 112.38343)
  create_atoms CPU = 0.000 seconds
create_atoms 2 single 40.79644578796562 64.576 77.11486345930939
Created 1 atoms
  using lattice units in orthogonal box = (35.518755 42.477327 67.826025) to (79.535367 85.216473 112.38343)
  create_atoms CPU = 0.000 seconds
create_atoms 3 single 41.23080584527221 66.3686 79.00694086881438
Created 1 atoms
  using lattice units in orthogonal box = (35.518755 42.477327 67.826025) to (79.535367 85.216473 112.38343)
  create_atoms CPU = 0.000 seconds
create_atoms 1 single 41.09416240687679 63.8893 79.84916850164834
Created 1 atoms
  using lattice units in orthogonal box = (35.518755 42.477327 67.826025) to (79.535367 85.216473 112.38343)
  create_atoms CPU = 0.000 seconds
create_atoms 1 single 42.866355587392555 64.2329 75.37071807083254
Created 1 atoms
  using lattice units in orthogonal box = (35.518755 42.477327 67.826025) to (79.535367 85.216473 112.38343)
  create_atoms CPU = 0.000 seconds
create_atoms 2 single 45.895236332378225 63.9331 79.65666785558955
Created 1 atoms
  using lattice units in orthogonal box = (35.518755 42.477327 67.826025) to (79.535367 85.216473 112.38343)
  create_atoms CPU = 0.000 seconds
create_atoms 1 single 43.36220951289398 63.8857 78.19883608951952
Created 1 atoms
  using lattice units in orthogonal box = (35.518755 42.477327 67.826025) to (79.535367 85.216473 112.38343)
  create_atoms CPU = 0.000 seconds
create_atoms 2 single 45.0863718051576 65.7947 77.46375222712757
Created 1 atoms
  using lattice units in orthogonal box = (35.518755 42.477327 67.826025) to (79.535367 85.216473 112.38343)
  create_atoms CPU = 0.000 seconds
create_atoms 1 single 42.62042263610316 66.8314 76.93211219997606
Created 1 atoms
  using lattice units in orthogonal box = (35.518755 42.477327 67.826025) to (79.535367 85.216473 112.38343)
  create_atoms CPU = 0.000 seconds
create_atoms 3 single 44.649133237822355 68.2231 76.1233110359151
Created 1 atoms
  using lattice units in orthogonal box = (35.518755 42.477327 67.826025) to (79.535367 85.216473 112.38343)
  create_atoms CPU = 0.000 seconds
create_atoms 3 single 42.54561094555874 68.4742 78.9762999391058
Created 1 atoms
  using lattice units in orthogonal box = (35.518755 42.477327 67.826025) to (79.535367 85.216473 112.38343)
  create_atoms CPU = 0.000 seconds
create_atoms 1 single 45.31287616045845 68.0499 78.7717617849472
Created 1 atoms
  using lattice units in orthogonal box = (35.518755 42.477327 67.826025) to (79.535367 85.216473 112.38343)
  create_atoms CPU = 0.000 seconds
create_atoms 1 single 48.38782699140401 64.8713 75.63614015025624
Created 1 atoms
  using lattice units in orthogonal box = (35.518755 42.477327 67.826025) to (79.535367 85.216473 112.38343)
  create_atoms CPU = 0.000 seconds
create_atoms 1 single 47.695980343839544 65.4732 78.46575042201343
Created 1 atoms
  using lattice units in orthogonal box = (35.518755 42.477327 67.826025) to (79.535367 85.216473 112.38343)
  create_atoms CPU = 0.000 seconds
create_atoms 2 single 49.868586074498566 66.89 77.75643279596734
Created 1 atoms
  using lattice units in orthogonal box = (35.518755 42.477327 67.826025) to (79.535367 85.216473 112.38343)
  create_atoms CPU = 0.000 seconds
create_atoms 1 single 47.30036739255014 67.541 76.31213079106733
Created 1 atoms
  using lattice units in orthogonal box = (35.518755 42.477327 67.826025) to (79.535367 85.216473 112.38343)
  create_atoms CPU = 0.000 seconds
create_atoms 4 single 50.72736366762177 64.8905 79.18621020431719
Created 1 atoms
  using lattice units in orthogonal box = (35.518755 42.477327 67.826025) to (79.535367 85.216473 112.38343)
  create_atoms CPU = 0.000 seconds
create_atoms 1 single 48.18886131805157 68.5934 79.1749685645215
Created 1 atoms
  using lattice units in orthogonal box = (35.518755 42.477327 67.826025) to (79.535367 85.216473 112.38343)
  create_atoms CPU = 0.000 seconds
create_atoms 5 single 53.92156830945559 66.1791 75.19871103360481
Created 1 atoms
  using lattice units in orthogonal box = (35.518755 42.477327 67.826025) to (79.535367 85.216473 112.38343)
  create_atoms CPU = 0.000 seconds
create_atoms 4 single 51.37930383954155 65.3005 76.49498153393868
Created 1 atoms
  using lattice units in orthogonal box = (35.518755 42.477327 67.826025) to (79.535367 85.216473 112.38343)
  create_atoms CPU = 0.000 seconds
create_atoms 5 single 54.16019478510029 65.2192 77.76847030406715
Created 1 atoms
  using lattice units in orthogonal box = (35.518755 42.477327 67.826025) to (79.535367 85.216473 112.38343)
  create_atoms CPU = 0.000 seconds
create_atoms 3 single 51.9998405730659 67.8801 76.24308921568502
Created 1 atoms
  using lattice units in orthogonal box = (35.518755 42.477327 67.826025) to (79.535367 85.216473 112.38343)
  create_atoms CPU = 0.000 seconds
create_atoms 1 single 54.47505908309456 68.1822 77.46216049051934
Created 1 atoms
  using lattice units in orthogonal box = (35.518755 42.477327 67.826025) to (79.535367 85.216473 112.38343)
  create_atoms CPU = 0.000 seconds
create_atoms 3 single 53.35407535816619 63.8519 79.91960284656288
Created 1 atoms
  using lattice units in orthogonal box = (35.518755 42.477327 67.826025) to (79.535367 85.216473 112.38343)
  create_atoms CPU = 0.000 seconds
create_atoms 1 single 52.51684383954155 67.0773 79.13368289624533
Created 1 atoms
  using lattice units in orthogonal box = (35.518755 42.477327 67.826025) to (79.535367 85.216473 112.38343)
  create_atoms CPU = 0.000 seconds
create_atoms 1 single 57.161963782234956 64.5348 78.52623641312647
Created 1 atoms
  using lattice units in orthogonal box = (35.518755 42.477327 67.826025) to (79.535367 85.216473 112.38343)
  create_atoms CPU = 0.000 seconds
create_atoms 3 single 55.77709747851003 64.2357 75.97338934412667
Created 1 atoms
  using lattice units in orthogonal box = (35.518755 42.477327 67.826025) to (79.535367 85.216473 112.38343)
  create_atoms CPU = 0.000 seconds
create_atoms 2 single 58.5165953008596 64.6565 76.18737843439668
Created 1 atoms
  using lattice units in orthogonal box = (35.518755 42.477327 67.826025) to (79.535367 85.216473 112.38343)
  create_atoms CPU = 0.000 seconds
create_atoms 1 single 56.783951346704875 66.7567 76.52751265086955
Created 1 atoms
  using lattice units in orthogonal box = (35.518755 42.477327 67.826025) to (79.535367 85.216473 112.38343)
  create_atoms CPU = 0.000 seconds
create_atoms 1 single 59.6256435530086 66.2398 78.35323454051861
Created 1 atoms
  using lattice units in orthogonal box = (35.518755 42.477327 67.826025) to (79.535367 85.216473 112.38343)
  create_atoms CPU = 0.000 seconds
create_atoms 1 single 57.122922750716334 68.1106 79.22331756399674
Created 1 atoms
  using lattice units in orthogonal box = (35.518755 42.477327 67.826025) to (79.535367 85.216473 112.38343)
  create_atoms CPU = 0.000 seconds
create_atoms 2 single 58.91879404011462 68.4201 76.85033673172784
Created 1 atoms
  using lattice units in orthogonal box = (35.518755 42.477327 67.826025) to (79.535367 85.216473 112.38343)
  create_atoms CPU = 0.000 seconds
create_atoms 1 single 63.95199896848138 64.2989 76.94166261962549
Created 1 atoms
  using lattice units in orthogonal box = (35.518755 42.477327 67.826025) to (79.535367 85.216473 112.38343)
  create_atoms CPU = 0.000 seconds
create_atoms 3 single 63.8575846991404 68.1521 79.6001612059971
Created 1 atoms
  using lattice units in orthogonal box = (35.518755 42.477327 67.826025) to (79.535367 85.216473 112.38343)
  create_atoms CPU = 0.000 seconds
create_atoms 1 single 61.60708034383955 66.5292 76.20896636214592
Created 1 atoms
  using lattice units in orthogonal box = (35.518755 42.477327 67.826025) to (79.535367 85.216473 112.38343)
  create_atoms CPU = 0.000 seconds
create_atoms 1 single 62.82204263610315 65.6826 79.1194567503092
Created 1 atoms
  using lattice units in orthogonal box = (35.518755 42.477327 67.826025) to (79.535367 85.216473 112.38343)
  create_atoms CPU = 0.000 seconds
create_atoms 2 single 64.07639323782234 67.1859 77.30378269799965
Created 1 atoms
  using lattice units in orthogonal box = (35.518755 42.477327 67.826025) to (79.535367 85.216473 112.38343)
  create_atoms CPU = 0.000 seconds
create_atoms 1 single 61.37785392550144 68.6003 78.51718341116712
Created 1 atoms
  using lattice units in orthogonal box = (35.518755 42.477327 67.826025) to (79.535367 85.216473 112.38343)
  create_atoms CPU = 0.000 seconds
create_atoms 1 single 65.74867925501432 66.4825 75.53476642501907
Created 1 atoms
  using lattice units in orthogonal box = (35.518755 42.477327 67.826025) to (79.535367 85.216473 112.38343)
  create_atoms CPU = 0.000 seconds
create_atoms 3 single 68.01808693409743 65.0938 76.4522036125923
Created 1 atoms
  using lattice units in orthogonal box = (35.518755 42.477327 67.826025) to (79.535367 85.216473 112.38343)
  create_atoms CPU = 0.000 seconds
create_atoms 1 single 66.3901612034384 65.6786 78.4461521650245
Created 1 atoms
  using lattice units in orthogonal box = (35.518755 42.477327 67.826025) to (79.535367 85.216473 112.38343)
  create_atoms CPU = 0.000 seconds
create_atoms 2 single 69.51989220630372 65.4348 78.72997869898096
Created 1 atoms
  using lattice units in orthogonal box = (35.518755 42.477327 67.826025) to (79.535367 85.216473 112.38343)
  create_atoms CPU = 0.000 seconds
create_atoms 1 single 68.34254446991403 67.7622 77.41341355689204
Created 1 atoms
  using lattice units in orthogonal box = (35.518755 42.477327 67.826025) to (79.535367 85.216473 112.38343)
  create_atoms CPU = 0.000 seconds
create_atoms 3 single 70.49623340974212 67.7379 79.29972092119216
Created 1 atoms
  using lattice units in orthogonal box = (35.518755 42.477327 67.826025) to (79.535367 85.216473 112.38343)
  create_atoms CPU = 0.000 seconds
create_atoms 1 single 43.605656618911176 70.4303 77.76369509424244
Created 1 atoms
  using lattice units in orthogonal box = (35.518755 42.477327 67.826025) to (79.535367 85.216473 112.38343)
  create_atoms CPU = 0.000 seconds
create_atoms 4 single 43.695542521489976 70.4174 74.91866487409293
Created 1 atoms
  using lattice units in orthogonal box = (35.518755 42.477327 67.826025) to (79.535367 85.216473 112.38343)
  create_atoms CPU = 0.000 seconds
create_atoms 2 single 44.7924347277937 72.5924 76.57078798990602
Created 1 atoms
  using lattice units in orthogonal box = (35.518755 42.477327 67.826025) to (79.535367 85.216473 112.38343)
  create_atoms CPU = 0.000 seconds
create_atoms 3 single 46.11603570200573 70.5728 79.46735068274724
Created 1 atoms
  using lattice units in orthogonal box = (35.518755 42.477327 67.826025) to (79.535367 85.216473 112.38343)
  create_atoms CPU = 0.000 seconds
create_atoms 1 single 44.0937753008596 72.6826 79.72879342065035
Created 1 atoms
  using lattice units in orthogonal box = (35.518755 42.477327 67.826025) to (79.535367 85.216473 112.38343)
  create_atoms CPU = 0.000 seconds
create_atoms 2 single 48.12856756446992 69.79 74.97497255660934
Created 1 atoms
  using lattice units in orthogonal box = (35.518755 42.477327 67.826025) to (79.535367 85.216473 112.38343)
  create_atoms CPU = 0.000 seconds
create_atoms 1 single 49.92003719197708 69.3507 76.96364848152679
Created 1 atoms
  using lattice units in orthogonal box = (35.518755 42.477327 67.826025) to (79.535367 85.216473 112.38343)
  create_atoms CPU = 0.000 seconds
create_atoms 1 single 46.4924688252149 70.3138 76.91599586681764
Created 1 atoms
  using lattice units in orthogonal box = (35.518755 42.477327 67.826025) to (79.535367 85.216473 112.38343)
  create_atoms CPU = 0.000 seconds
create_atoms 1 single 46.89089982808023 72.8687 78.58861259146181
Created 1 atoms
  using lattice units in orthogonal box = (35.518755 42.477327 67.826025) to (79.535367 85.216473 112.38343)
  create_atoms CPU = 0.000 seconds
create_atoms 3 single 48.30316962750717 72.0182 76.1153523528739
Created 1 atoms
  using lattice units in orthogonal box = (35.518755 42.477327 67.826025) to (79.535367 85.216473 112.38343)
  create_atoms CPU = 0.000 seconds
create_atoms 2 single 49.105993638968485 71.2866 78.46584990555145
Created 1 atoms
  using lattice units in orthogonal box = (35.518755 42.477327 67.826025) to (79.535367 85.216473 112.38343)
  create_atoms CPU = 0.000 seconds
create_atoms 1 single 51.01169065902579 69.5092 79.82768005743712
Created 1 atoms
  using lattice units in orthogonal box = (35.518755 42.477327 67.826025) to (79.535367 85.216473 112.38343)
  create_atoms CPU = 0.000 seconds
create_atoms 1 single 53.19862979942693 70.2944 75.43786945899258
Created 1 atoms
  using lattice units in orthogonal box = (35.518755 42.477327 67.826025) to (79.535367 85.216473 112.38343)
  create_atoms CPU = 0.000 seconds
create_atoms 2 single 53.170681031518626 73.0651 75.72109909172094
Created 1 atoms
  using lattice units in orthogonal box = (35.518755 42.477327 67.826025) to (79.535367 85.216473 112.38343)
  create_atoms CPU = 0.000 seconds
create_atoms 3 single 52.48692928366763 69.8952 77.88695519784288
Created 1 atoms
  using lattice units in orthogonal box = (35.518755 42.477327 67.826025) to (79.535367 85.216473 112.38343)
  create_atoms CPU = 0.000 seconds
create_atoms 1 single 50.9448718051576 71.8988 76.24856081027583
Created 1 atoms
  using lattice units in orthogonal box = (35.518755 42.477327 67.826025) to (79.535367 85.216473 112.38343)
  create_atoms CPU = 0.000 seconds
create_atoms 1 single 54.28446114613181 71.89 77.90814519144004
Created 1 atoms
  using lattice units in orthogonal box = (35.518755 42.477327 67.826025) to (79.535367 85.216473 112.38343)
  create_atoms CPU = 0.000 seconds
create_atoms 3 single 55.36201369627507 71.9222 75.46244189288227
Created 1 atoms
  using lattice units in orthogonal box = (35.518755 42.477327 67.826025) to (79.535367 85.216473 112.38343)
  create_atoms CPU = 0.000 seconds
create_atoms 1 single 51.831037191977074 72.2539 79.2204325413943
Created 1 atoms
  using lattice units in orthogonal box = (35.518755 42.477327 67.826025) to (79.535367 85.216473 112.38343)
  create_atoms CPU = 0.000 seconds
create_atoms 1 single 57.903167277936966 70.4153 75.2361168438984
Created 1 atoms
  using lattice units in orthogonal box = (35.518755 42.477327 67.826025) to (79.535367 85.216473 112.38343)
  create_atoms CPU = 0.000 seconds
create_atoms 3 single 56.447138968481376 71.0831 79.2331664342602
Created 1 atoms
  using lattice units in orthogonal box = (35.518755 42.477327 67.826025) to (79.535367 85.216473 112.38343)
  create_atoms CPU = 0.000 seconds
create_atoms 1 single 58.77320922636103 70.4372 78.45998037680857
Created 1 atoms
  using lattice units in orthogonal box = (35.518755 42.477327 67.826025) to (79.535367 85.216473 112.38343)
  create_atoms CPU = 0.000 seconds
create_atoms 3 single 56.21020223495702 70.0678 77.05467591881039
Created 1 atoms
  using lattice units in orthogonal box = (35.518755 42.477327 67.826025) to (79.535367 85.216473 112.38343)
  create_atoms CPU = 0.000 seconds
create_atoms 1 single 57.35704429799427 72.7916 77.18818282682635
Created 1 atoms
  using lattice units in orthogonal box = (35.518755 42.477327 67.826025) to (79.535367 85.216473 112.38343)
  create_atoms CPU = 0.000 seconds
create_atoms 1 single 60.577348194842415 71.499 76.62251942967376
Created 1 atoms
  using lattice units in orthogonal box = (35.518755 42.477327 67.826025) to (79.535367 85.216473 112.38343)
  create_atoms CPU = 0.000 seconds
create_atoms 2 single 60.850043151862465 69.037 75.62877836844314
Created 1 atoms
  using lattice units in orthogonal box = (35.518755 42.477327 67.826025) to (79.535367 85.216473 112.38343)
  create_atoms CPU = 0.000 seconds
create_atoms 4 single 61.37234475644699 71.1961 79.75625087714243
Created 1 atoms
  using lattice units in orthogonal box = (35.518755 42.477327 67.826025) to (79.535367 85.216473 112.38343)
  create_atoms CPU = 0.000 seconds
create_atoms 1 single 63.38506183381089 69.9166 77.07308037334315
Created 1 atoms
  using lattice units in orthogonal box = (35.518755 42.477327 67.826025) to (79.535367 85.216473 112.38343)
  create_atoms CPU = 0.000 seconds
create_atoms 4 single 64.58107186246419 72.2601 75.91857391468048
Created 1 atoms
  using lattice units in orthogonal box = (35.518755 42.477327 67.826025) to (79.535367 85.216473 112.38343)
  create_atoms CPU = 0.000 seconds
create_atoms 4 single 62.978885501432664 72.8594 77.93152382287353
Created 1 atoms
  using lattice units in orthogonal box = (35.518755 42.477327 67.826025) to (79.535367 85.216473 112.38343)
  create_atoms CPU = 0.000 seconds
create_atoms 4 single 64.02042452722063 70.918 79.93044655220649
Created 1 atoms
  using lattice units in orthogonal box = (35.518755 42.477327 67.826025) to (79.535367 85.216473 112.38343)
  create_atoms CPU = 0.000 seconds
create_atoms 1 single 66.00630429799428 68.8273 78.54225326274688
Created 1 atoms
  using lattice units in orthogonal box = (35.518755 42.477327 67.826025) to (79.535367 85.216473 112.38343)
  create_atoms CPU = 0.000 seconds
create_atoms 4 single 65.96512974212035 71.9239 78.54543673596335
Created 1 atoms
  using lattice units in orthogonal box = (35.518755 42.477327 67.826025) to (79.535367 85.216473 112.38343)
  create_atoms CPU = 0.000 seconds
create_atoms 4 single 65.79767782234957 69.4746 75.62529644461262
Created 1 atoms
  using lattice units in orthogonal box = (35.518755 42.477327 67.826025) to (79.535367 85.216473 112.38343)
  create_atoms CPU = 0.000 seconds
create_atoms 2 single 67.87399071633237 70.5988 77.41450787581022
Created 1 atoms
  using lattice units in orthogonal box = (35.518755 42.477327 67.826025) to (79.535367 85.216473 112.38343)
  create_atoms CPU = 0.000 seconds
create_atoms 5 single 68.60996441260745 72.9834 79.40994868131264
Created 1 atoms
  using lattice units in orthogonal box = (35.518755 42.477327 67.826025) to (79.535367 85.216473 112.38343)
  create_atoms CPU = 0.000 seconds
create_atoms 2 single 70.36689673352436 70.1901 78.70083002234259
Created 1 atoms
  using lattice units in orthogonal box = (35.518755 42.477327 67.826025) to (79.535367 85.216473 112.38343)
  create_atoms CPU = 0.000 seconds
create_atoms 4 single 44.95130343839541 75.0593 77.93689593392634
Created 1 atoms
  using lattice units in orthogonal box = (35.518755 42.477327 67.826025) to (79.535367 85.216473 112.38343)
  create_atoms CPU = 0.000 seconds
create_atoms 1 single 46.984136504298 74.3726 76.06272556126403
Created 1 atoms
  using lattice units in orthogonal box = (35.518755 42.477327 67.826025) to (79.535367 85.216473 112.38343)
  create_atoms CPU = 0.000 seconds
create_atoms 4 single 49.50188332378224 73.7529 77.79831536547162
Created 1 atoms
  using lattice units in orthogonal box = (35.518755 42.477327 67.826025) to (79.535367 85.216473 112.38343)
  create_atoms CPU = 0.000 seconds
create_atoms 2 single 48.004832836676215 75.7564 78.60681807891854
Created 1 atoms
  using lattice units in orthogonal box = (35.518755 42.477327 67.826025) to (79.535367 85.216473 112.38343)
  create_atoms CPU = 0.000 seconds
create_atoms 1 single 50.002802750716334 76.3455 76.86237423982763
Created 1 atoms
  using lattice units in orthogonal box = (35.518755 42.477327 67.826025) to (79.535367 85.216473 112.38343)
  create_atoms CPU = 0.000 seconds
create_atoms 1 single 50.19934916905444 77.9506 79.34548334867901
Created 1 atoms
  using lattice units in orthogonal box = (35.518755 42.477327 67.826025) to (79.535367 85.216473 112.38343)
  create_atoms CPU = 0.000 seconds
create_atoms 5 single 51.18616573065902 75.3037 79.63219490523788
Created 1 atoms
  using lattice units in orthogonal box = (35.518755 42.477327 67.826025) to (79.535367 85.216473 112.38343)
  create_atoms CPU = 0.000 seconds
create_atoms 1 single 52.15720985673353 75.5363 75.00372329909565
Created 1 atoms
  using lattice units in orthogonal box = (35.518755 42.477327 67.826025) to (79.535367 85.216473 112.38343)
  create_atoms CPU = 0.000 seconds
create_atoms 2 single 52.04660160458453 74.3244 77.38615506747597
Created 1 atoms
  using lattice units in orthogonal box = (35.518755 42.477327 67.826025) to (79.535367 85.216473 112.38343)
  create_atoms CPU = 0.000 seconds
create_atoms 1 single 54.88560893982808 74.7259 77.15873569957395
Created 1 atoms
  using lattice units in orthogonal box = (35.518755 42.477327 67.826025) to (79.535367 85.216473 112.38343)
  create_atoms CPU = 0.000 seconds
create_atoms 1 single 52.995991060171924 77.0126 77.69137056210562
Created 1 atoms
  using lattice units in orthogonal box = (35.518755 42.477327 67.826025) to (79.535367 85.216473 112.38343)
  create_atoms CPU = 0.000 seconds
create_atoms 3 single 54.559591690544416 76.8008 75.45030490124444
Created 1 atoms
  using lattice units in orthogonal box = (35.518755 42.477327 67.826025) to (79.535367 85.216473 112.38343)
  create_atoms CPU = 0.000 seconds
create_atoms 2 single 53.651807621776506 74.2905 79.54047108318817
Created 1 atoms
  using lattice units in orthogonal box = (35.518755 42.477327 67.826025) to (79.535367 85.216473 112.38343)
  create_atoms CPU = 0.000 seconds
create_atoms 3 single 56.15958865329513 73.545 79.39890600859299
Created 1 atoms
  using lattice units in orthogonal box = (35.518755 42.477327 67.826025) to (79.535367 85.216473 112.38343)
  create_atoms CPU = 0.000 seconds
create_atoms 1 single 55.404667621776504 76.2093 79.85294887609291
Created 1 atoms
  using lattice units in orthogonal box = (35.518755 42.477327 67.826025) to (79.535367 85.216473 112.38343)
  create_atoms CPU = 0.000 seconds
create_atoms 1 single 60.309807106017196 73.8976 78.51758134531919
Created 1 atoms
  using lattice units in orthogonal box = (35.518755 42.477327 67.826025) to (79.535367 85.216473 112.38343)
  create_atoms CPU = 0.000 seconds
create_atoms 5 single 56.97611518624642 75.4267 75.56272129920126
Created 1 atoms
  using lattice units in orthogonal box = (35.518755 42.477327 67.826025) to (79.535367 85.216473 112.38343)
  create_atoms CPU = 0.000 seconds
create_atoms 1 single 59.45298710601719 76.5804 76.85103311649394
Created 1 atoms
  using lattice units in orthogonal box = (35.518755 42.477327 67.826025) to (79.535367 85.216473 112.38343)
  create_atoms CPU = 0.000 seconds
create_atoms 3 single 59.99581128939828 76.4803 79.42676139923717
Created 1 atoms
  using lattice units in orthogonal box = (35.518755 42.477327 67.826025) to (79.535367 85.216473 112.38343)
  create_atoms CPU = 0.000 seconds
create_atoms 5 single 57.80877667621777 75.2428 78.7530588798004
Created 1 atoms
  using lattice units in orthogonal box = (35.518755 42.477327 67.826025) to (79.535367 85.216473 112.38343)
  create_atoms CPU = 0.000 seconds
create_atoms 3 single 59.28794051575931 73.9223 75.87868101593651
Created 1 atoms
  using lattice units in orthogonal box = (35.518755 42.477327 67.826025) to (79.535367 85.216473 112.38343)
  create_atoms CPU = 0.000 seconds
create_atoms 1 single 56.48841014326648 77.5785 77.52015939318201
Created 1 atoms
  using lattice units in orthogonal box = (35.518755 42.477327 67.826025) to (79.535367 85.216473 112.38343)
  create_atoms CPU = 0.000 seconds
create_atoms 4 single 61.78240601719198 73.8002 75.23939980065289
Created 1 atoms
  using lattice units in orthogonal box = (35.518755 42.477327 67.826025) to (79.535367 85.216473 112.38343)
  create_atoms CPU = 0.000 seconds
create_atoms 4 single 65.20739541547279 74.7318 77.95778747690946
Created 1 atoms
  using lattice units in orthogonal box = (35.518755 42.477327 67.826025) to (79.535367 85.216473 112.38343)
  create_atoms CPU = 0.000 seconds
create_atoms 1 single 62.33676928366763 75.8013 77.40087863110217
Created 1 atoms
  using lattice units in orthogonal box = (35.518755 42.477327 67.826025) to (79.535367 85.216473 112.38343)
  create_atoms CPU = 0.000 seconds
create_atoms 2 single 64.74291799426935 76.9117 79.53082118000073
Created 1 atoms
  using lattice units in orthogonal box = (35.518755 42.477327 67.826025) to (79.535367 85.216473 112.38343)
  create_atoms CPU = 0.000 seconds
create_atoms 1 single 61.65373323782235 78.3419 78.90089141729052
Created 1 atoms
  using lattice units in orthogonal box = (35.518755 42.477327 67.826025) to (79.535367 85.216473 112.38343)
  create_atoms CPU = 0.000 seconds
create_atoms 1 single 54.958043954154725 79.0529 79.51530174807041
Created 1 atoms
  using lattice units in orthogonal box = (35.518755 42.477327 67.826025) to (79.535367 85.216473 112.38343)
  create_atoms CPU = 0.000 seconds
create_atoms 3 single 58.929061604584525 78.6707 78.56662672956053
Created 1 atoms
  using lattice units in orthogonal box = (35.518755 42.477327 67.826025) to (79.535367 85.216473 112.38343)
  create_atoms CPU = 0.000 seconds
create_atoms 1 single 50.038513696275075 47.953 82.92718916782869
Created 1 atoms
  using lattice units in orthogonal box = (35.518755 42.477327 67.826025) to (79.535367 85.216473 112.38343)
  create_atoms CPU = 0.000 seconds
create_atoms 4 single 50.77511627507163 47.9379 80.22969303455524
Created 1 atoms
  using lattice units in orthogonal box = (35.518755 42.477327 67.826025) to (79.535367 85.216473 112.38343)
  create_atoms CPU = 0.000 seconds
create_atoms 2 single 48.16393272206304 49.0408 80.65558206079695
Created 1 atoms
  using lattice units in orthogonal box = (35.518755 42.477327 67.826025) to (79.535367 85.216473 112.38343)
  create_atoms CPU = 0.000 seconds
create_atoms 2 single 55.76425489971347 47.576 80.02495591332062
Created 1 atoms
  using lattice units in orthogonal box = (35.518755 42.477327 67.826025) to (79.535367 85.216473 112.38343)
  create_atoms CPU = 0.000 seconds
create_atoms 2 single 54.655762750716335 45.7594 82.73001279548319
Created 1 atoms
  using lattice units in orthogonal box = (35.518755 42.477327 67.826025) to (79.535367 85.216473 112.38343)
  create_atoms CPU = 0.000 seconds
create_atoms 3 single 52.63236871060172 47.3955 82.95753164692323
Created 1 atoms
  using lattice units in orthogonal box = (35.518755 42.477327 67.826025) to (79.535367 85.216473 112.38343)
  create_atoms CPU = 0.000 seconds
create_atoms 3 single 53.46831959885387 47.0821 80.70711453348865
Created 1 atoms
  using lattice units in orthogonal box = (35.518755 42.477327 67.826025) to (79.535367 85.216473 112.38343)
  create_atoms CPU = 0.000 seconds
create_atoms 1 single 55.16529266475645 48.3655 82.68683693998474
Created 1 atoms
  using lattice units in orthogonal box = (35.518755 42.477327 67.826025) to (79.535367 85.216473 112.38343)
  create_atoms CPU = 0.000 seconds
create_atoms 4 single 56.60223100286533 45.4977 84.82642939207075
Created 1 atoms
  using lattice units in orthogonal box = (35.518755 42.477327 67.826025) to (79.535367 85.216473 112.38343)
  create_atoms CPU = 0.000 seconds
create_atoms 1 single 57.449542922636105 46.5492 82.33028793973942
Created 1 atoms
  using lattice units in orthogonal box = (35.518755 42.477327 67.826025) to (79.535367 85.216473 112.38343)
  create_atoms CPU = 0.000 seconds
create_atoms 1 single 60.05265455587393 48.3415 82.69927238223661
Created 1 atoms
  using lattice units in orthogonal box = (35.518755 42.477327 67.826025) to (79.535367 85.216473 112.38343)
  create_atoms CPU = 0.000 seconds
create_atoms 2 single 57.698311461318056 48.6408 84.16556024903791
Created 1 atoms
  using lattice units in orthogonal box = (35.518755 42.477327 67.826025) to (79.535367 85.216473 112.38343)
  create_atoms CPU = 0.000 seconds
create_atoms 1 single 59.49842739255014 46.6082 84.95734972809832
Created 1 atoms
  using lattice units in orthogonal box = (35.518755 42.477327 67.826025) to (79.535367 85.216473 112.38343)
  create_atoms CPU = 0.000 seconds
create_atoms 5 single 58.82766939828081 47.3176 80.03928154279478
Created 1 atoms
  using lattice units in orthogonal box = (35.518755 42.477327 67.826025) to (79.535367 85.216473 112.38343)
  create_atoms CPU = 0.000 seconds
create_atoms 3 single 61.76869891117479 47.6698 80.91722376577607
Created 1 atoms
  using lattice units in orthogonal box = (35.518755 42.477327 67.826025) to (79.535367 85.216473 112.38343)
  create_atoms CPU = 0.000 seconds
create_atoms 3 single 62.55647243553009 47.265 83.38182893655669
Created 1 atoms
  using lattice units in orthogonal box = (35.518755 42.477327 67.826025) to (79.535367 85.216473 112.38343)
  create_atoms CPU = 0.000 seconds
create_atoms 1 single 64.80486257879656 48.3629 82.50478206541752
Created 1 atoms
  using lattice units in orthogonal box = (35.518755 42.477327 67.826025) to (79.535367 85.216473 112.38343)
  create_atoms CPU = 0.000 seconds
create_atoms 4 single 41.29668830945559 53.9609 84.15640776354053
Created 1 atoms
  using lattice units in orthogonal box = (35.518755 42.477327 67.826025) to (79.535367 85.216473 112.38343)
  create_atoms CPU = 0.000 seconds
create_atoms 2 single 44.72046550143266 52.364 80.08414861843949
Created 1 atoms
  using lattice units in orthogonal box = (35.518755 42.477327 67.826025) to (79.535367 85.216473 112.38343)
  create_atoms CPU = 0.000 seconds
create_atoms 1 single 45.93470744985674 49.8011 84.34960479436542
Created 1 atoms
  using lattice units in orthogonal box = (35.518755 42.477327 67.826025) to (79.535367 85.216473 112.38343)
  create_atoms CPU = 0.000 seconds
create_atoms 1 single 45.3385 52.5471 82.80661511975467
Created 1 atoms
  using lattice units in orthogonal box = (35.518755 42.477327 67.826025) to (79.535367 85.216473 112.38343)
  create_atoms CPU = 0.000 seconds
create_atoms 1 single 42.753878739255015 53.8004 81.6294264144246
Created 1 atoms
  using lattice units in orthogonal box = (35.518755 42.477327 67.826025) to (79.535367 85.216473 112.38343)
  create_atoms CPU = 0.000 seconds
create_atoms 2 single 45.86158418338109 50.1936 81.5284506233395
Created 1 atoms
  using lattice units in orthogonal box = (35.518755 42.477327 67.826025) to (79.535367 85.216473 112.38343)
  create_atoms CPU = 0.000 seconds
create_atoms 2 single 43.640131690544415 51.5926 84.51216089548174
Created 1 atoms
  using lattice units in orthogonal box = (35.518755 42.477327 67.826025) to (79.535367 85.216473 112.38343)
  create_atoms CPU = 0.000 seconds
create_atoms 2 single 48.18207495702006 49.9049 82.9239062110742
Created 1 atoms
  using lattice units in orthogonal box = (35.518755 42.477327 67.826025) to (79.535367 85.216473 112.38343)
  create_atoms CPU = 0.000 seconds
create_atoms 1 single 47.9520294555874 52.1201 81.41056263079187
Created 1 atoms
  using lattice units in orthogonal box = (35.518755 42.477327 67.826025) to (79.535367 85.216473 112.38343)
  create_atoms CPU = 0.000 seconds
create_atoms 2 single 50.350836504297995 52.9416 80.40269490716312
Created 1 atoms
  using lattice units in orthogonal box = (35.518755 42.477327 67.826025) to (79.535367 85.216473 112.38343)
  create_atoms CPU = 0.000 seconds
create_atoms 1 single 50.372289512893985 53.1771 83.30264004029685
Created 1 atoms
  using lattice units in orthogonal box = (35.518755 42.477327 67.826025) to (79.535367 85.216473 112.38343)
  create_atoms CPU = 0.000 seconds
create_atoms 1 single 47.91543988538682 51.9431 84.54290130872835
Created 1 atoms
  using lattice units in orthogonal box = (35.518755 42.477327 67.826025) to (79.535367 85.216473 112.38343)
  create_atoms CPU = 0.000 seconds
create_atoms 1 single 50.80716722063037 50.5619 81.81565959758845
Created 1 atoms
  using lattice units in orthogonal box = (35.518755 42.477327 67.826025) to (79.535367 85.216473 112.38343)
  create_atoms CPU = 0.000 seconds
create_atoms 1 single 50.52410905444126 50.4323 84.65790427867353
Created 1 atoms
  using lattice units in orthogonal box = (35.518755 42.477327 67.826025) to (79.535367 85.216473 112.38343)
  create_atoms CPU = 0.000 seconds
create_atoms 3 single 52.96424722063037 49.4041 81.19070401177898
Created 1 atoms
  using lattice units in orthogonal box = (35.518755 42.477327 67.826025) to (79.535367 85.216473 112.38343)
  create_atoms CPU = 0.000 seconds
create_atoms 1 single 54.574993467048714 51.2194 82.58058852138485
Created 1 atoms
  using lattice units in orthogonal box = (35.518755 42.477327 67.826025) to (79.535367 85.216473 112.38343)
  create_atoms CPU = 0.000 seconds
create_atoms 1 single 54.20176595988539 53.7558 80.22183383505208
Created 1 atoms
  using lattice units in orthogonal box = (35.518755 42.477327 67.826025) to (79.535367 85.216473 112.38343)
  create_atoms CPU = 0.000 seconds
create_atoms 3 single 52.507107621776505 52.7823 81.97085391689166
Created 1 atoms
  using lattice units in orthogonal box = (35.518755 42.477327 67.826025) to (79.535367 85.216473 112.38343)
  create_atoms CPU = 0.000 seconds
create_atoms 2 single 52.91027008595989 49.6389 83.89138361826889
Created 1 atoms
  using lattice units in orthogonal box = (35.518755 42.477327 67.826025) to (79.535367 85.216473 112.38343)
  create_atoms CPU = 0.000 seconds
create_atoms 5 single 53.056712148997136 52.3184 84.71928562162871
Created 1 atoms
  using lattice units in orthogonal box = (35.518755 42.477327 67.826025) to (79.535367 85.216473 112.38343)
  create_atoms CPU = 0.000 seconds
create_atoms 1 single 54.97684653295129 54.077 83.24096024672762
Created 1 atoms
  using lattice units in orthogonal box = (35.518755 42.477327 67.826025) to (79.535367 85.216473 112.38343)
  create_atoms CPU = 0.000 seconds
create_atoms 3 single 59.67342670487106 53.8305 80.23725378344439
Created 1 atoms
  using lattice units in orthogonal box = (35.518755 42.477327 67.826025) to (79.535367 85.216473 112.38343)
  create_atoms CPU = 0.000 seconds
create_atoms 2 single 56.534176848137534 52.2136 81.23507366973362
Created 1 atoms
  using lattice units in orthogonal box = (35.518755 42.477327 67.826025) to (79.535367 85.216473 112.38343)
  create_atoms CPU = 0.000 seconds
create_atoms 3 single 60.31485736389685 50.4893 84.2369894293326
Created 1 atoms
  using lattice units in orthogonal box = (35.518755 42.477327 67.826025) to (79.535367 85.216473 112.38343)
  create_atoms CPU = 0.000 seconds
create_atoms 1 single 57.52548601719197 49.5167 81.38479639444601
Created 1 atoms
  using lattice units in orthogonal box = (35.518755 42.477327 67.826025) to (79.535367 85.216473 112.38343)
  create_atoms CPU = 0.000 seconds
create_atoms 1 single 59.556184355300864 51.6535 81.92728012724115
Created 1 atoms
  using lattice units in orthogonal box = (35.518755 42.477327 67.826025) to (79.535367 85.216473 112.38343)
  create_atoms CPU = 0.000 seconds
create_atoms 1 single 57.54031856733524 51.3848 83.8692982728296
Created 1 atoms
  using lattice units in orthogonal box = (35.518755 42.477327 67.826025) to (79.535367 85.216473 112.38343)
  create_atoms CPU = 0.000 seconds
create_atoms 4 single 57.89002383954155 54.0253 82.67509788249899
Created 1 atoms
  using lattice units in orthogonal box = (35.518755 42.477327 67.826025) to (79.535367 85.216473 112.38343)
  create_atoms CPU = 0.000 seconds
create_atoms 1 single 63.36954091690544 49.5541 79.9919273786997
Created 1 atoms
  using lattice units in orthogonal box = (35.518755 42.477327 67.826025) to (79.535367 85.216473 112.38343)
  create_atoms CPU = 0.000 seconds
create_atoms 2 single 62.28786744985674 49.7879 82.40529852740264
Created 1 atoms
  using lattice units in orthogonal box = (35.518755 42.477327 67.826025) to (79.535367 85.216473 112.38343)
  create_atoms CPU = 0.000 seconds
create_atoms 1 single 64.32446922636103 50.0819 84.67481648013607
Created 1 atoms
  using lattice units in orthogonal box = (35.518755 42.477327 67.826025) to (79.535367 85.216473 112.38343)
  create_atoms CPU = 0.000 seconds
create_atoms 1 single 61.93162830945559 52.3027 80.5455532677525
Created 1 atoms
  using lattice units in orthogonal box = (35.518755 42.477327 67.826025) to (79.535367 85.216473 112.38343)
  create_atoms CPU = 0.000 seconds
create_atoms 1 single 64.61456189111748 51.6401 81.9510566928267
Created 1 atoms
  using lattice units in orthogonal box = (35.518755 42.477327 67.826025) to (79.535367 85.216473 112.38343)
  create_atoms CPU = 0.000 seconds
create_atoms 1 single 62.3011046991404 52.0861 83.69709226852585
Created 1 atoms
  using lattice units in orthogonal box = (35.518755 42.477327 67.826025) to (79.535367 85.216473 112.38343)
  create_atoms CPU = 0.000 seconds
create_atoms 1 single 65.19421931232091 52.9701 84.61383307133295
Created 1 atoms
  using lattice units in orthogonal box = (35.518755 42.477327 67.826025) to (79.535367 85.216473 112.38343)
  create_atoms CPU = 0.000 seconds
create_atoms 4 single 64.48125994269341 54.1211 80.49790065304337
Created 1 atoms
  using lattice units in orthogonal box = (35.518755 42.477327 67.826025) to (79.535367 85.216473 112.38343)
  create_atoms CPU = 0.000 seconds
create_atoms 1 single 66.58875392550144 50.0048 80.94756624487061
Created 1 atoms
  using lattice units in orthogonal box = (35.518755 42.477327 67.826025) to (79.535367 85.216473 112.38343)
  create_atoms CPU = 0.000 seconds
create_atoms 3 single 66.61358200573066 52.6296 80.35364952292178
Created 1 atoms
  using lattice units in orthogonal box = (35.518755 42.477327 67.826025) to (79.535367 85.216473 112.38343)
  create_atoms CPU = 0.000 seconds
create_atoms 2 single 66.79007724928367 50.8456 83.61233229413718
Created 1 atoms
  using lattice units in orthogonal box = (35.518755 42.477327 67.826025) to (79.535367 85.216473 112.38343)
  create_atoms CPU = 0.000 seconds
[...]
Created 1 atoms
  using lattice units in orthogonal box = (35.518755 42.477327 67.826025) to (79.535367 85.216473 112.38343)
  create_atoms CPU = 0.000 seconds
create_atoms 1 single 67.63518739255015 60.5253 107.66406934584236
Created 1 atoms
  using lattice units in orthogonal box = (35.518755 42.477327 67.826025) to (79.535367 85.216473 112.38343)
  create_atoms CPU = 0.000 seconds
create_atoms 3 single 66.8402653295129 63.2173 107.80832047596394
Created 1 atoms
  using lattice units in orthogonal box = (35.518755 42.477327 67.826025) to (79.535367 85.216473 112.38343)
  create_atoms CPU = 0.000 seconds
create_atoms 3 single 66.15694383954155 61.5508 109.51346831753897
Created 1 atoms
  using lattice units in orthogonal box = (35.518755 42.477327 67.826025) to (79.535367 85.216473 112.38343)
  create_atoms CPU = 0.000 seconds
create_atoms 1 single 69.31751690544414 63.2668 107.32682015197193
Created 1 atoms
  using lattice units in orthogonal box = (35.518755 42.477327 67.826025) to (79.535367 85.216473 112.38343)
  create_atoms CPU = 0.000 seconds
create_atoms 3 single 71.31430830945558 59.2203 105.7868149835016
Created 1 atoms
  using lattice units in orthogonal box = (35.518755 42.477327 67.826025) to (79.535367 85.216473 112.38343)
  create_atoms CPU = 0.000 seconds
create_atoms 1 single 71.51313008595989 62.071 105.73010936683312
Created 1 atoms
  using lattice units in orthogonal box = (35.518755 42.477327 67.826025) to (79.535367 85.216473 112.38343)
  create_atoms CPU = 0.000 seconds
create_atoms 3 single 70.22488481375358 60.6299 107.41038632390443
Created 1 atoms
  using lattice units in orthogonal box = (35.518755 42.477327 67.826025) to (79.535367 85.216473 112.38343)
  create_atoms CPU = 0.000 seconds
create_atoms 1 single 48.50319226361032 65.3158 105.82859806946786
Created 1 atoms
  using lattice units in orthogonal box = (35.518755 42.477327 67.826025) to (79.535367 85.216473 112.38343)
  create_atoms CPU = 0.000 seconds
create_atoms 2 single 47.56215616045846 67.9244 105.40181369138402
Created 1 atoms
  using lattice units in orthogonal box = (35.518755 42.477327 67.826025) to (79.535367 85.216473 112.38343)
  create_atoms CPU = 0.000 seconds
create_atoms 2 single 52.67922664756447 65.7651 106.0862604329264
Created 1 atoms
  using lattice units in orthogonal box = (35.518755 42.477327 67.826025) to (79.535367 85.216473 112.38343)
  create_atoms CPU = 0.000 seconds
create_atoms 1 single 53.2297 65.0727 108.67283242131323
Created 1 atoms
  using lattice units in orthogonal box = (35.518755 42.477327 67.826025) to (79.535367 85.216473 112.38343)
  create_atoms CPU = 0.000 seconds
create_atoms 2 single 50.94076017191978 64.2456 106.95375688441614
Created 1 atoms
  using lattice units in orthogonal box = (35.518755 42.477327 67.826025) to (79.535367 85.216473 112.38343)
  create_atoms CPU = 0.000 seconds
create_atoms 1 single 53.312686246418345 68.1715 107.31985630431089
Created 1 atoms
  using lattice units in orthogonal box = (35.518755 42.477327 67.826025) to (79.535367 85.216473 112.38343)
  create_atoms CPU = 0.000 seconds
create_atoms 2 single 55.27248395415473 67.2591 109.40901060262335
Created 1 atoms
  using lattice units in orthogonal box = (35.518755 42.477327 67.826025) to (79.535367 85.216473 112.38343)
  create_atoms CPU = 0.000 seconds
create_atoms 2 single 50.94153610315187 66.6827 107.71082660870935
Created 1 atoms
  using lattice units in orthogonal box = (35.518755 42.477327 67.826025) to (79.535367 85.216473 112.38343)
  create_atoms CPU = 0.000 seconds
create_atoms 1 single 58.431697134670486 66.957 106.0763120791249
Created 1 atoms
  using lattice units in orthogonal box = (35.518755 42.477327 67.826025) to (79.535367 85.216473 112.38343)
  create_atoms CPU = 0.000 seconds
create_atoms 1 single 57.53710687679084 63.9928 107.26613519378284
Created 1 atoms
  using lattice units in orthogonal box = (35.518755 42.477327 67.826025) to (79.535367 85.216473 112.38343)
  create_atoms CPU = 0.000 seconds
create_atoms 1 single 56.127579942693416 64.5384 109.59305514795088
Created 1 atoms
  using lattice units in orthogonal box = (35.518755 42.477327 67.826025) to (79.535367 85.216473 112.38343)
  create_atoms CPU = 0.000 seconds
create_atoms 5 single 59.24221146131806 64.4413 110.37897509826841
Created 1 atoms
  using lattice units in orthogonal box = (35.518755 42.477327 67.826025) to (79.535367 85.216473 112.38343)
  create_atoms CPU = 0.000 seconds
create_atoms 1 single 55.45540802292264 66.1488 106.91595313997048
Created 1 atoms
  using lattice units in orthogonal box = (35.518755 42.477327 67.826025) to (79.535367 85.216473 112.38343)
  create_atoms CPU = 0.000 seconds
create_atoms 1 single 58.1594 66.7978 109.02002996898517
Created 1 atoms
  using lattice units in orthogonal box = (35.518755 42.477327 67.826025) to (79.535367 85.216473 112.38343)
  create_atoms CPU = 0.000 seconds
create_atoms 3 single 62.6975994269341 63.8757 107.80633080520364
Created 1 atoms
  using lattice units in orthogonal box = (35.518755 42.477327 67.826025) to (79.535367 85.216473 112.38343)
  create_atoms CPU = 0.000 seconds
create_atoms 1 single 65.08761432664757 63.9948 109.50351996373749
Created 1 atoms
  using lattice units in orthogonal box = (35.518755 42.477327 67.826025) to (79.535367 85.216473 112.38343)
  create_atoms CPU = 0.000 seconds
create_atoms 1 single 62.13034699140402 65.7535 105.77288728817953
Created 1 atoms
  using lattice units in orthogonal box = (35.518755 42.477327 67.826025) to (79.535367 85.216473 112.38343)
  create_atoms CPU = 0.000 seconds
create_atoms 5 single 60.415940974212035 65.3624 107.95854061836641
Created 1 atoms
  using lattice units in orthogonal box = (35.518755 42.477327 67.826025) to (79.535367 85.216473 112.38343)
  create_atoms CPU = 0.000 seconds
create_atoms 3 single 63.0868323782235 68.1793 105.37694280688031
Created 1 atoms
  using lattice units in orthogonal box = (35.518755 42.477327 67.826025) to (79.535367 85.216473 112.38343)
  create_atoms CPU = 0.000 seconds
create_atoms 1 single 62.2941446991404 64.541 110.29242442019546
Created 1 atoms
  using lattice units in orthogonal box = (35.518755 42.477327 67.826025) to (79.535367 85.216473 112.38343)
  create_atoms CPU = 0.000 seconds
create_atoms 1 single 63.56066819484241 66.5874 108.66885307979265
Created 1 atoms
  using lattice units in orthogonal box = (35.518755 42.477327 67.826025) to (79.535367 85.216473 112.38343)
  create_atoms CPU = 0.000 seconds
create_atoms 1 single 61.26557936962751 68.1041 107.33776334115356
Created 1 atoms
  using lattice units in orthogonal box = (35.518755 42.477327 67.826025) to (79.535367 85.216473 112.38343)
  create_atoms CPU = 0.000 seconds
create_atoms 3 single 61.000356446991404 67.146 109.82783629766598
Created 1 atoms
  using lattice units in orthogonal box = (35.518755 42.477327 67.826025) to (79.535367 85.216473 112.38343)
  create_atoms CPU = 0.000 seconds
create_atoms 2 single 64.71300315186247 64.8743 107.01543667798536
Created 1 atoms
  using lattice units in orthogonal box = (35.518755 42.477327 67.826025) to (79.535367 85.216473 112.38343)
  create_atoms CPU = 0.000 seconds
create_atoms 1 single 66.71045902578797 64.8177 105.56795119986887
Created 1 atoms
  using lattice units in orthogonal box = (35.518755 42.477327 67.826025) to (79.535367 85.216473 112.38343)
  create_atoms CPU = 0.000 seconds
create_atoms 1 single 65.55555386819485 67.4698 106.79657289435262
Created 1 atoms
  using lattice units in orthogonal box = (35.518755 42.477327 67.826025) to (79.535367 85.216473 112.38343)
  create_atoms CPU = 0.000 seconds
create_atoms 2 single 68.98554068767909 66.0222 106.31009839345987
Created 1 atoms
  using lattice units in orthogonal box = (35.518755 42.477327 67.826025) to (79.535367 85.216473 112.38343)
  create_atoms CPU = 0.000 seconds
create_atoms 3 single 68.19538739255015 68.2033 107.31687179817044
Created 1 atoms
  using lattice units in orthogonal box = (35.518755 42.477327 67.826025) to (79.535367 85.216473 112.38343)
  create_atoms CPU = 0.000 seconds
create_atoms 1 single 67.44039169054442 65.7005 108.43407193007754
Created 1 atoms
  using lattice units in orthogonal box = (35.518755 42.477327 67.826025) to (79.535367 85.216473 112.38343)
  create_atoms CPU = 0.000 seconds
create_atoms 1 single 71.4779871060172 65.2043 106.01562712093583
Created 1 atoms
  using lattice units in orthogonal box = (35.518755 42.477327 67.826025) to (79.535367 85.216473 112.38343)
  create_atoms CPU = 0.000 seconds
create_atoms 1 single 70.4923312320917 68.2524 106.07432240836461
Created 1 atoms
  using lattice units in orthogonal box = (35.518755 42.477327 67.826025) to (79.535367 85.216473 112.38343)
  create_atoms CPU = 0.000 seconds
create_atoms 2 single 49.78860487106017 70.177 106.14296604959488
Created 1 atoms
  using lattice units in orthogonal box = (35.518755 42.477327 67.826025) to (79.535367 85.216473 112.38343)
  create_atoms CPU = 0.000 seconds
create_atoms 1 single 52.334279656160454 70.3805 105.51423008934084
Created 1 atoms
  using lattice units in orthogonal box = (35.518755 42.477327 67.826025) to (79.535367 85.216473 112.38343)
  create_atoms CPU = 0.000 seconds
create_atoms 3 single 54.719754154727795 71.1357 107.05622492857145
Created 1 atoms
  using lattice units in orthogonal box = (35.518755 42.477327 67.826025) to (79.535367 85.216473 112.38343)
  create_atoms CPU = 0.000 seconds
create_atoms 3 single 54.77665730659026 69.273 105.39882918524357
Created 1 atoms
  using lattice units in orthogonal box = (35.518755 42.477327 67.826025) to (79.535367 85.216473 112.38343)
  create_atoms CPU = 0.000 seconds
create_atoms 2 single 59.35477736389685 69.7875 106.21459419696559
Created 1 atoms
  using lattice units in orthogonal box = (35.518755 42.477327 67.826025) to (79.535367 85.216473 112.38343)
  create_atoms CPU = 0.000 seconds
create_atoms 1 single 56.50123209169055 68.9566 107.54767360636495
Created 1 atoms
  using lattice units in orthogonal box = (35.518755 42.477327 67.826025) to (79.535367 85.216473 112.38343)
  create_atoms CPU = 0.000 seconds
create_atoms 1 single 57.60815386819484 71.6478 107.14377044202456
Created 1 atoms
  using lattice units in orthogonal box = (35.518755 42.477327 67.826025) to (79.535367 85.216473 112.38343)
  create_atoms CPU = 0.000 seconds
create_atoms 1 single 59.40537220630373 69.5676 108.83200608213706
Created 1 atoms
  using lattice units in orthogonal box = (35.518755 42.477327 67.826025) to (79.535367 85.216473 112.38343)
  create_atoms CPU = 0.000 seconds
create_atoms 2 single 60.379064756446994 72.1112 107.28901640752628
Created 1 atoms
  using lattice units in orthogonal box = (35.518755 42.477327 67.826025) to (79.535367 85.216473 112.38343)
  create_atoms CPU = 0.000 seconds
create_atoms 1 single 61.82371805157594 70.5665 105.58784790747184
Created 1 atoms
  using lattice units in orthogonal box = (35.518755 42.477327 67.826025) to (79.535367 85.216473 112.38343)
  create_atoms CPU = 0.000 seconds
create_atoms 2 single 63.82243438395416 69.3137 107.54170459408407
Created 1 atoms
  using lattice units in orthogonal box = (35.518755 42.477327 67.826025) to (79.535367 85.216473 112.38343)
  create_atoms CPU = 0.000 seconds
create_atoms 3 single 61.99345759312321 70.5205 108.43606160083783
Created 1 atoms
  using lattice units in orthogonal box = (35.518755 42.477327 67.826025) to (79.535367 85.216473 112.38343)
  create_atoms CPU = 0.000 seconds
create_atoms 1 single 63.99500773638968 72.089 107.00349865342358
Created 1 atoms
  using lattice units in orthogonal box = (35.518755 42.477327 67.826025) to (79.535367 85.216473 112.38343)
  create_atoms CPU = 0.000 seconds
create_atoms 3 single 66.32163495702007 72.3109 105.97782337649018
Created 1 atoms
  using lattice units in orthogonal box = (35.518755 42.477327 67.826025) to (79.535367 85.216473 112.38343)
  create_atoms CPU = 0.000 seconds
create_atoms 1 single 68.45637306590258 70.5891 105.79178916040235
Created 1 atoms
  using lattice units in orthogonal box = (35.518755 42.477327 67.826025) to (79.535367 85.216473 112.38343)
  create_atoms CPU = 0.000 seconds
create_atoms 1 single 66.43739054441261 70.227 107.74266134087414
Created 1 atoms
  using lattice units in orthogonal box = (35.518755 42.477327 67.826025) to (79.535367 85.216473 112.38343)
  create_atoms CPU = 0.000 seconds
create_atoms 4 single 55.69838051575932 73.9785 106.29318619199734
Created 1 atoms
  using lattice units in orthogonal box = (35.518755 42.477327 67.826025) to (79.535367 85.216473 112.38343)
  create_atoms CPU = 0.000 seconds
create_atoms 5 single 58.71650315186246 74.3007 106.32104158264151
Created 1 atoms
  using lattice units in orthogonal box = (35.518755 42.477327 67.826025) to (79.535367 85.216473 112.38343)
  create_atoms CPU = 0.000 seconds
create_atoms 1 single 61.65230229226361 73.69 105.542085479985
Created 1 atoms
  using lattice units in orthogonal box = (35.518755 42.477327 67.826025) to (79.535367 85.216473 112.38343)
  create_atoms CPU = 0.000 seconds
group surface id  1 2 3 4 5 6 7 8 9 10 11 12 13 14 15 16 17 18 19 21 22 23 24 28 30 31 32 35 36 37 38 39 40 41 43 44 45 49 50 51 52 56 57 59 60 61 62 63 64 65 68 69 70 71 72 73 74 75 76 77 78 79 82 83 84 85 90 91 93 95 97 98 99 100 102 103 105 107 109 132 135 136 137 138 139 140 141 142 144 170 177 178 180 183 184 185 186 187 188 189 193 194 195 223 224 226 227 228 229 230 231 233 257 261 262 263 264 265 266 267 269 270 271 273 276 277 282 283 286 287 288 289 290 291 292 293 294 295 296 297 298 299 300 301 303 304 305 307 308 309 310 311 312 313 314 315 316 317 318 319 340 348 349 350 351 352 354 356 357 358 393 399 400 401 402 403 405 407 452 453 454 455 456 457 501 502 503 504 505 506 507 514 545 550 551 552 555 556 557 558 560 585 587 588 589 590 591 592 593 594 595 597 598 599 600 602 604 605 606 607 608 609 610 611 612 613 614 615 617 619 620 622 623 625 626 629 631 632 634 635 636 637 638 639 640 643 676 678 679 680 681 682 683 684 727 729 730 732 733 734 777 778 779 783 785 788 791 836 839 840 842 843 844 846 847 892 893 895 896 897 898 899 903 906 935 941 942 943 944 945 948 949 950 951 953 954 955 958 960 963 964 965 966 967 969 970 971 972 973 975 976 977 979 981 983 984 988 990 991 994 996 997 999 1000 1001 1002 1003 1004 1006 1009 1011 1042 1044 1046 1048 1050 1051 1052 1053 1054 1055 1096 1097 1098 1100 1101 1102 1104 1106 1156 1157 1159 1161 1163 1164 1165 1168 1210 1211 1214 1215 1216 1217 1264 1267 1268 1269 1270 1272 1304 1309 1310 1311 1312 1313 1314 1315 1316 1319 1320 1322 1325 1326 1328 1330 1333 1334 1336 1338 1340 1341 1342 1343 1344 1345 1346 1347 1348 1350 1351 1352 1353 1354 1355 1356 1357 1358 1359 1360 1361 1362 1364 1366 1390 1395 1396 1397 1398 1400 1401 1402 1404 1409 1438 1443 1445 1446 1447 1448 1451 1453 1494 1495 1498 1499 1502 1503 1547 1548 1549 1551 1552 1553 1554 1555 1556 1562 1597 1598 1599 1600 1601 1602 1604 1606 1607 1608 1610 1616 1638 1639 1640 1641 1642 1643 1644 1645 1646 1649 1650 1651 1652 1653 1654 1657 1658 1659 1661 1662 1663 1664 1665 1666 1667 1668 1669 1670 1671 1673 1675 1677 1679 1681 1683 1685 1689 1690 1691 1692 1693 1695 1696 1697 1703 1725 1726 1731 1732 1733 1734 1735 1736 1737 1739 1740 1741 1743 1771 1772 1773 1775 1776 1777 1778 1779 1782 1784 1817 1818 1819 1820 1822 1823 1824 1830 1831 1853 1856 1857 1858 1859 1860 1862 1863 1864 1865 1867 1871 1873 1874 1876 1878 1880 1881 1882 1883 1884 1885 1886 1887 1888 1889 1890 1891 1892 1893 1894 1896 1897 1900 1902 1903 1904 1905 1906 1907 1910 1911 1912 1913 1916 1918 1919 1923 1924 1926 1929 1930 1931 1932 1933 1934 1935 1936 1937 1939 1940 1941 1942 1943 1946 1947 1949 1951 1955 1956 1958 1961 1962 1963 1964 1965 1966 1967 1968 1969 1972 1973 1974 1975 1977 1978 1979 1980 1981 1982 1983 1984 1985 
629 atoms in group surface
    fix freeze surface setforce 0 0 0 
    minimize 0 1e-4 100000 100000
Neighbor list info ...
  update: every = 1 steps, delay = 0 steps, check = yes
  max neighbors/atom: 2000, page size: 100000
  master list distance cutoff = 9.1553683
  ghost atom cutoff = 9.1553683
  binsize = 4.5776842, bins = 10 10 10
  1 neighbor lists, perpetual/occasional/extra = 1 0 0
  (1) pair eam/alloy, perpetual
      attributes: half, newton on
      pair build: half/bin/atomonly/newton
      stencil: half/bin/3d
      bin: standard
Per MPI rank memory allocation (min/avg/max) = 4.067 | 4.404 | 4.472 Mbytes
   Step          Temp          E_pair         E_mol          TotEng         Press          Volume    
         0   0             -10620.558      0             -10620.558      8757.4459      62872.47     
        91   0             -10651.487      0             -10651.487      6675.1786      62872.47     
Loop time of 0.0433578 on 96 procs for 91 steps with 1985 atoms

99.8% CPU use with 96 MPI tasks x 1 OpenMP threads

Minimization stats:
  Stopping criterion = linesearch alpha is zero
  Energy initial, next-to-last, final = 
     -10620.5578617644   -10651.487187429   -10651.487187429
  Force two-norm initial, final = 15.652224 0.033822685
  Force max component initial, final = 0.98885532 0.011289225
  Final line search alpha, max atom move = 7.6293945e-06 8.6129954e-08
  Iterations, force evaluations = 91 215

MPI task timing breakdown:
Section |  min time  |  avg time  |  max time  |%varavg| %total
---------------------------------------------------------------
Pair    | 0.014157   | 0.021153   | 0.032873   |   4.0 | 48.79
Neigh   | 3.49e-06   | 7.0997e-05 | 0.00018933 |   0.0 |  0.16
Comm    | 0.0059464  | 0.016062   | 0.0238     |   4.0 | 37.04
Output  | 0          | 0          | 0          |   0.0 |  0.00
Modify  | 1.0715e-05 | 1.9984e-05 | 3.2117e-05 |   0.0 |  0.05
Other   |            | 0.006052   |            |       | 13.96

Nlocal:        20.6771 ave          45 max           0 min
Histogram: 20 9 10 1 8 4 9 20 11 4
Nghost:        441.177 ave         941 max         118 min
Histogram: 8 17 15 18 7 15 2 6 0 8
Neighs:        1414.56 ave        3861 max           0 min
Histogram: 28 10 9 7 7 6 12 5 6 6

Total # of neighbors = 135798
Ave neighs/atom = 68.412091
Neighbor list builds = 2
Dangerous builds = 0
    unfix freeze
    compute force all property/atom fx fy fz
    dump fcal all custom 1 dump.force id type x y z fx fy fz
    dump_modify fcal sort id
    run 1 
WARNING: No fixes with time integration, atoms won't move (src/verlet.cpp:60)
Per MPI rank memory allocation (min/avg/max) = 2.959 | 3.296 | 3.363 Mbytes
   Step          Temp          E_pair         E_mol          TotEng         Press          Volume    
        91   0             -10651.487      0             -10651.487      6675.1786      62872.47     
        92   0             -10651.487      0             -10651.487      6675.1786      62872.47     
Loop time of 0.00100657 on 96 procs for 1 steps with 1985 atoms

Performance: 85.836 ns/day, 0.280 hours/ns, 993.468 timesteps/s, 1.972 Matom-step/s
98.9% CPU use with 96 MPI tasks x 1 OpenMP threads

MPI task timing breakdown:
Section |  min time  |  avg time  |  max time  |%varavg| %total
---------------------------------------------------------------
Pair    | 8.8043e-05 | 0.00013634 | 0.00022792 |   0.0 | 13.55
Neigh   | 0          | 0          | 0          |   0.0 |  0.00
Comm    | 3.0624e-05 | 0.00010849 | 0.00016636 |   0.0 | 10.78
Output  | 0.00018125 | 0.00042372 | 0.00080372 |   0.0 | 42.10
Modify  | 1.72e-07   | 3.0588e-07 | 6.68e-07   |   0.0 |  0.03
Other   |            | 0.0003377  |            |       | 33.55

Nlocal:        20.6771 ave          44 max           0 min
Histogram: 20 9 10 2 6 5 7 22 9 6
Nghost:        440.958 ave         940 max         117 min
Histogram: 8 16 16 18 7 15 2 6 0 8
Neighs:         1414.6 ave        3847 max           0 min
Histogram: 28 10 9 7 7 8 9 6 7 5

Total # of neighbors = 135802
Ave neighs/atom = 68.414106
Neighbor list builds = 0
Dangerous builds = 0
