LAMMPS (2 Aug 2023)
WARNING: Using I/O redirection is unreliable with parallel runs. Better to use the -in switch to read input files. (src/lammps.cpp:537)
OMP_NUM_THREADS environment is not set. Defaulting to 1 thread. (src/comm.cpp:98)
  using 1 OpenMP thread(s) per MPI task

            dimension 3
            units metal
            boundary s s s
            atom_style atomic
            timestep 0.001
            region myregion block 68.20034 114.37180000000001 16.759 59.9777 73.58208435530086 122.39074957020058  units box
            create_box 5 myregion
Created orthogonal box = (68.20034 16.759 73.582084) to (114.3718 59.9777 122.39075)
  6 by 4 by 8 MPI processor grid
            mass 1 91.224
            mass 2 63.546
            mass 3 58.693
            mass 4 26.982
            mass 5 47.867 
            pair_style eam/alloy
            pair_coeff * * ZrTiCuNiAl_Zhou04.eam.alloy Zr Cu Ni Al Ti
Reading eam/alloy potential file ZrTiCuNiAl_Zhou04.eam.alloy with DATE: 2018-03-30
            create_atoms 1 single 80.3283 27.9578 81.10152206303727
Created 1 atoms
  using lattice units in orthogonal box = (68.195723 16.754678 73.577203) to (114.37642 59.982022 122.39563)
  create_atoms CPU = 0.000 seconds
create_atoms 1 single 83.23294 27.4168 80.50686441260744
Created 1 atoms
  using lattice units in orthogonal box = (68.195723 16.754678 73.577203) to (114.37642 59.982022 122.39563)
  create_atoms CPU = 0.000 seconds
create_atoms 1 single 85.76458 28.0728 79.3882818338109
Created 1 atoms
  using lattice units in orthogonal box = (68.195723 16.754678 73.577203) to (114.37642 59.982022 122.39563)
  create_atoms CPU = 0.000 seconds
create_atoms 2 single 88.32672000000001 27.8478 78.7044940974212
Created 1 atoms
  using lattice units in orthogonal box = (68.195723 16.754678 73.577203) to (114.37642 59.982022 122.39563)
  create_atoms CPU = 0.000 seconds
create_atoms 1 single 88.82116 25.8319 81.15340034383955
Created 1 atoms
  using lattice units in orthogonal box = (68.195723 16.754678 73.577203) to (114.37642 59.982022 122.39563)
  create_atoms CPU = 0.000 seconds
create_atoms 2 single 91.15168 27.4889 80.79036664756448
Created 1 atoms
  using lattice units in orthogonal box = (68.195723 16.754678 73.577203) to (114.37642 59.982022 122.39563)
  create_atoms CPU = 0.000 seconds
create_atoms 3 single 76.76796 31.3167 81.07341180515759
Created 1 atoms
  using lattice units in orthogonal box = (68.195723 16.754678 73.577203) to (114.37642 59.982022 122.39563)
  create_atoms CPU = 0.000 seconds
create_atoms 2 single 78.32684 30.2157 79.66184263610316
Created 1 atoms
  using lattice units in orthogonal box = (68.195723 16.754678 73.577203) to (114.37642 59.982022 122.39563)
  create_atoms CPU = 0.000 seconds
create_atoms 3 single 78.58946 33.0285 78.1675424641834
Created 1 atoms
  using lattice units in orthogonal box = (68.195723 16.754678 73.577203) to (114.37642 59.982022 122.39563)
  create_atoms CPU = 0.000 seconds
create_atoms 3 single 80.96334 30.3521 80.30803575931233
Created 1 atoms
  using lattice units in orthogonal box = (68.195723 16.754678 73.577203) to (114.37642 59.982022 122.39563)
  create_atoms CPU = 0.000 seconds
create_atoms 1 single 83.46816 30.2683 79.63304676217766
Created 1 atoms
  using lattice units in orthogonal box = (68.195723 16.754678 73.577203) to (114.37642 59.982022 122.39563)
  create_atoms CPU = 0.000 seconds
create_atoms 1 single 81.11588 32.1646 78.30386578796562
Created 1 atoms
  using lattice units in orthogonal box = (68.195723 16.754678 73.577203) to (114.37642 59.982022 122.39563)
  create_atoms CPU = 0.000 seconds
create_atoms 3 single 84.30998 29.8351 77.24401765042981
Created 1 atoms
  using lattice units in orthogonal box = (68.195723 16.754678 73.577203) to (114.37642 59.982022 122.39563)
  create_atoms CPU = 0.000 seconds
create_atoms 1 single 84.32236 32.4499 77.92129203438395
Created 1 atoms
  using lattice units in orthogonal box = (68.195723 16.754678 73.577203) to (114.37642 59.982022 122.39563)
  create_atoms CPU = 0.000 seconds
create_atoms 1 single 87.14064 30.535 78.13920366762179
Created 1 atoms
  using lattice units in orthogonal box = (68.195723 16.754678 73.577203) to (114.37642 59.982022 122.39563)
  create_atoms CPU = 0.000 seconds
create_atoms 3 single 87.05856 33.2428 78.4497877363897
Created 1 atoms
  using lattice units in orthogonal box = (68.195723 16.754678 73.577203) to (114.37642 59.982022 122.39563)
  create_atoms CPU = 0.000 seconds
create_atoms 2 single 86.34262000000001 30.8024 80.49623736389685
Created 1 atoms
  using lattice units in orthogonal box = (68.195723 16.754678 73.577203) to (114.37642 59.982022 122.39563)
  create_atoms CPU = 0.000 seconds
create_atoms 1 single 88.8896 32.0486 81.0769541547278
Created 1 atoms
  using lattice units in orthogonal box = (68.195723 16.754678 73.577203) to (114.37642 59.982022 122.39563)
  create_atoms CPU = 0.000 seconds
create_atoms 1 single 90.35430000000001 30.0396 79.56345673352436
Created 1 atoms
  using lattice units in orthogonal box = (68.195723 16.754678 73.577203) to (114.37642 59.982022 122.39563)
  create_atoms CPU = 0.000 seconds
create_atoms 1 single 93.06264 31.6316 79.22933318051577
Created 1 atoms
  using lattice units in orthogonal box = (68.195723 16.754678 73.577203) to (114.37642 59.982022 122.39563)
  create_atoms CPU = 0.000 seconds
create_atoms 1 single 89.7608 32.9053 78.3247770773639
Created 1 atoms
  using lattice units in orthogonal box = (68.195723 16.754678 73.577203) to (114.37642 59.982022 122.39563)
  create_atoms CPU = 0.000 seconds
create_atoms 1 single 95.59882 33.4065 79.66321386819484
Created 1 atoms
  using lattice units in orthogonal box = (68.195723 16.754678 73.577203) to (114.37642 59.982022 122.39563)
  create_atoms CPU = 0.000 seconds
create_atoms 4 single 74.42924000000001 36.0718 79.11506383954156
Created 1 atoms
  using lattice units in orthogonal box = (68.195723 16.754678 73.577203) to (114.37642 59.982022 122.39563)
  create_atoms CPU = 0.000 seconds
create_atoms 5 single 78.47382 35.6346 77.23041959885387
Created 1 atoms
  using lattice units in orthogonal box = (68.195723 16.754678 73.577203) to (114.37642 59.982022 122.39563)
  create_atoms CPU = 0.000 seconds
create_atoms 1 single 77.41246 34.7897 79.54277398280803
Created 1 atoms
  using lattice units in orthogonal box = (68.195723 16.754678 73.577203) to (114.37642 59.982022 122.39563)
  create_atoms CPU = 0.000 seconds
create_atoms 2 single 76.59936 37.6213 78.66404275071635
Created 1 atoms
  using lattice units in orthogonal box = (68.195723 16.754678 73.577203) to (114.37642 59.982022 122.39563)
  create_atoms CPU = 0.000 seconds
create_atoms 1 single 79.51388 37.3655 80.44298785100287
Created 1 atoms
  using lattice units in orthogonal box = (68.195723 16.754678 73.577203) to (114.37642 59.982022 122.39563)
  create_atoms CPU = 0.000 seconds
create_atoms 2 single 83.48258 33.6035 80.02761879656161
Created 1 atoms
  using lattice units in orthogonal box = (68.195723 16.754678 73.577203) to (114.37642 59.982022 122.39563)
  create_atoms CPU = 0.000 seconds
create_atoms 1 single 80.93531999999999 34.6329 80.14828722063037
Created 1 atoms
  using lattice units in orthogonal box = (68.195723 16.754678 73.577203) to (114.37642 59.982022 122.39563)
  create_atoms CPU = 0.000 seconds
create_atoms 3 single 80.8081 36.8803 78.45847220630372
Created 1 atoms
  using lattice units in orthogonal box = (68.195723 16.754678 73.577203) to (114.37642 59.982022 122.39563)
  create_atoms CPU = 0.000 seconds
create_atoms 1 single 81.7863 34.8223 77.29463896848138
Created 1 atoms
  using lattice units in orthogonal box = (68.195723 16.754678 73.577203) to (114.37642 59.982022 122.39563)
  create_atoms CPU = 0.000 seconds
create_atoms 1 single 83.57248 36.4868 80.1070359885387
Created 1 atoms
  using lattice units in orthogonal box = (68.195723 16.754678 73.577203) to (114.37642 59.982022 122.39563)
  create_atoms CPU = 0.000 seconds
create_atoms 4 single 82.98125999999999 36.7337 75.83301982808024
Created 1 atoms
  using lattice units in orthogonal box = (68.195723 16.754678 73.577203) to (114.37642 59.982022 122.39563)
  create_atoms CPU = 0.000 seconds
create_atoms 1 single 85.23296 35.3785 78.35722957020057
Created 1 atoms
  using lattice units in orthogonal box = (68.195723 16.754678 73.577203) to (114.37642 59.982022 122.39563)
  create_atoms CPU = 0.000 seconds
create_atoms 4 single 85.73053999999999 37.7225 76.33717616045845
Created 1 atoms
  using lattice units in orthogonal box = (68.195723 16.754678 73.577203) to (114.37642 59.982022 122.39563)
  create_atoms CPU = 0.000 seconds
create_atoms 2 single 86.13436 33.5034 80.708321260745
Created 1 atoms
  using lattice units in orthogonal box = (68.195723 16.754678 73.577203) to (114.37642 59.982022 122.39563)
  create_atoms CPU = 0.000 seconds
create_atoms 4 single 87.31158 37.7329 79.47284114613181
Created 1 atoms
  using lattice units in orthogonal box = (68.195723 16.754678 73.577203) to (114.37642 59.982022 122.39563)
  create_atoms CPU = 0.000 seconds
create_atoms 1 single 87.90554 35.5437 77.40273776504299
Created 1 atoms
  using lattice units in orthogonal box = (68.195723 16.754678 73.577203) to (114.37642 59.982022 122.39563)
  create_atoms CPU = 0.000 seconds
create_atoms 1 single 88.39848 35.0831 80.71609157593124
Created 1 atoms
  using lattice units in orthogonal box = (68.195723 16.754678 73.577203) to (114.37642 59.982022 122.39563)
  create_atoms CPU = 0.000 seconds
create_atoms 4 single 90.40894 36.6066 76.63884722063038
Created 1 atoms
  using lattice units in orthogonal box = (68.195723 16.754678 73.577203) to (114.37642 59.982022 122.39563)
  create_atoms CPU = 0.000 seconds
create_atoms 3 single 93.50708 34.2512 80.73551736389686
Created 1 atoms
  using lattice units in orthogonal box = (68.195723 16.754678 73.577203) to (114.37642 59.982022 122.39563)
  create_atoms CPU = 0.000 seconds
create_atoms 1 single 92.31086 34.2668 77.69561008595988
Created 1 atoms
  using lattice units in orthogonal box = (68.195723 16.754678 73.577203) to (114.37642 59.982022 122.39563)
  create_atoms CPU = 0.000 seconds
create_atoms 1 single 90.99872 35.5101 79.85861444126076
Created 1 atoms
  using lattice units in orthogonal box = (68.195723 16.754678 73.577203) to (114.37642 59.982022 122.39563)
  create_atoms CPU = 0.000 seconds
create_atoms 1 single 93.89016 36.6853 79.48449661891117
Created 1 atoms
  using lattice units in orthogonal box = (68.195723 16.754678 73.577203) to (114.37642 59.982022 122.39563)
  create_atoms CPU = 0.000 seconds
create_atoms 4 single 89.85276 38.1028 78.75031610315186
Created 1 atoms
  using lattice units in orthogonal box = (68.195723 16.754678 73.577203) to (114.37642 59.982022 122.39563)
  create_atoms CPU = 0.000 seconds
create_atoms 2 single 97.11166 37.1609 80.70889260744985
Created 1 atoms
  using lattice units in orthogonal box = (68.195723 16.754678 73.577203) to (114.37642 59.982022 122.39563)
  create_atoms CPU = 0.000 seconds
create_atoms 1 single 98.56392 34.6253 81.10586429799427
Created 1 atoms
  using lattice units in orthogonal box = (68.195723 16.754678 73.577203) to (114.37642 59.982022 122.39563)
  create_atoms CPU = 0.000 seconds
create_atoms 4 single 71.96062 39.5491 80.58765283667621
Created 1 atoms
  using lattice units in orthogonal box = (68.195723 16.754678 73.577203) to (114.37642 59.982022 122.39563)
  create_atoms CPU = 0.000 seconds
create_atoms 1 single 74.80896 38.8895 80.14840148997135
Created 1 atoms
  using lattice units in orthogonal box = (68.195723 16.754678 73.577203) to (114.37642 59.982022 122.39563)
  create_atoms CPU = 0.000 seconds
create_atoms 4 single 73.71284 41.527 78.88138303724928
Created 1 atoms
  using lattice units in orthogonal box = (68.195723 16.754678 73.577203) to (114.37642 59.982022 122.39563)
  create_atoms CPU = 0.000 seconds
create_atoms 1 single 78.4847 38.682 77.3791982808023
Created 1 atoms
  using lattice units in orthogonal box = (68.195723 16.754678 73.577203) to (114.37642 59.982022 122.39563)
  create_atoms CPU = 0.000 seconds
create_atoms 1 single 76.39664 40.5321 78.39288160458453
Created 1 atoms
  using lattice units in orthogonal box = (68.195723 16.754678 73.577203) to (114.37642 59.982022 122.39563)
  create_atoms CPU = 0.000 seconds
create_atoms 1 single 78.26712 42.79 77.67092790830947
Created 1 atoms
  using lattice units in orthogonal box = (68.195723 16.754678 73.577203) to (114.37642 59.982022 122.39563)
  create_atoms CPU = 0.000 seconds
create_atoms 1 single 79.5764 40.5537 80.08566762177651
Created 1 atoms
  using lattice units in orthogonal box = (68.195723 16.754678 73.577203) to (114.37642 59.982022 122.39563)
  create_atoms CPU = 0.000 seconds
create_atoms 1 single 78.07958 42.7909 80.81664859598854
Created 1 atoms
  using lattice units in orthogonal box = (68.195723 16.754678 73.577203) to (114.37642 59.982022 122.39563)
  create_atoms CPU = 0.000 seconds
create_atoms 3 single 77.79334 39.1275 81.08735266475645
Created 1 atoms
  using lattice units in orthogonal box = (68.195723 16.754678 73.577203) to (114.37642 59.982022 122.39563)
  create_atoms CPU = 0.000 seconds
create_atoms 5 single 80.99362 38.466 76.32140699140402
Created 1 atoms
  using lattice units in orthogonal box = (68.195723 16.754678 73.577203) to (114.37642 59.982022 122.39563)
  create_atoms CPU = 0.000 seconds
create_atoms 2 single 79.83612000000001 40.9001 76.89161100286533
Created 1 atoms
  using lattice units in orthogonal box = (68.195723 16.754678 73.577203) to (114.37642 59.982022 122.39563)
  create_atoms CPU = 0.000 seconds
create_atoms 3 single 84.00644000000001 43.2042 78.84253146131806
Created 1 atoms
  using lattice units in orthogonal box = (68.195723 16.754678 73.577203) to (114.37642 59.982022 122.39563)
  create_atoms CPU = 0.000 seconds
create_atoms 1 single 82.62452 41.0872 77.09043965616047
Created 1 atoms
  using lattice units in orthogonal box = (68.195723 16.754678 73.577203) to (114.37642 59.982022 122.39563)
  create_atoms CPU = 0.000 seconds
create_atoms 1 single 81.90164 39.2016 79.51900595988539
Created 1 atoms
  using lattice units in orthogonal box = (68.195723 16.754678 73.577203) to (114.37642 59.982022 122.39563)
  create_atoms CPU = 0.000 seconds
create_atoms 3 single 81.5326 41.9469 79.26349971346706
Created 1 atoms
  using lattice units in orthogonal box = (68.195723 16.754678 73.577203) to (114.37642 59.982022 122.39563)
  create_atoms CPU = 0.000 seconds
create_atoms 2 single 84.01706 41.0639 80.13697455587393
Created 1 atoms
  using lattice units in orthogonal box = (68.195723 16.754678 73.577203) to (114.37642 59.982022 122.39563)
  create_atoms CPU = 0.000 seconds
create_atoms 4 single 84.26952 38.6074 78.22227747851004
Created 1 atoms
  using lattice units in orthogonal box = (68.195723 16.754678 73.577203) to (114.37642 59.982022 122.39563)
  create_atoms CPU = 0.000 seconds
create_atoms 4 single 86.22785999999999 39.4083 81.09340893982808
Created 1 atoms
  using lattice units in orthogonal box = (68.195723 16.754678 73.577203) to (114.37642 59.982022 122.39563)
  create_atoms CPU = 0.000 seconds
create_atoms 4 single 84.88554 41.0732 75.68584091690545
Created 1 atoms
  using lattice units in orthogonal box = (68.195723 16.754678 73.577203) to (114.37642 59.982022 122.39563)
  create_atoms CPU = 0.000 seconds
create_atoms 1 single 87.9749 42.5969 76.53931862464184
Created 1 atoms
  using lattice units in orthogonal box = (68.195723 16.754678 73.577203) to (114.37642 59.982022 122.39563)
  create_atoms CPU = 0.000 seconds
create_atoms 1 single 86.07672000000001 41.3441 78.8507588538682
Created 1 atoms
  using lattice units in orthogonal box = (68.195723 16.754678 73.577203) to (114.37642 59.982022 122.39563)
  create_atoms CPU = 0.000 seconds
create_atoms 4 single 87.7431 39.7797 77.10038108882522
Created 1 atoms
  using lattice units in orthogonal box = (68.195723 16.754678 73.577203) to (114.37642 59.982022 122.39563)
  create_atoms CPU = 0.000 seconds
create_atoms 1 single 88.87684 42.876 79.91952
Created 1 atoms
  using lattice units in orthogonal box = (68.195723 16.754678 73.577203) to (114.37642 59.982022 122.39563)
  create_atoms CPU = 0.000 seconds
create_atoms 4 single 89.1152 39.9309 80.54617306590258
Created 1 atoms
  using lattice units in orthogonal box = (68.195723 16.754678 73.577203) to (114.37642 59.982022 122.39563)
  create_atoms CPU = 0.000 seconds
create_atoms 4 single 90.12052 40.8507 75.58208435530086
Created 1 atoms
  using lattice units in orthogonal box = (68.195723 16.754678 73.577203) to (114.37642 59.982022 122.39563)
  create_atoms CPU = 0.000 seconds
create_atoms 1 single 90.7402 41.115 78.72186303724928
Created 1 atoms
  using lattice units in orthogonal box = (68.195723 16.754678 73.577203) to (114.37642 59.982022 122.39563)
  create_atoms CPU = 0.000 seconds
create_atoms 5 single 92.23264 38.9926 77.80039507163323
Created 1 atoms
  using lattice units in orthogonal box = (68.195723 16.754678 73.577203) to (114.37642 59.982022 122.39563)
  create_atoms CPU = 0.000 seconds
create_atoms 1 single 93.30328 41.7899 77.67538441260746
Created 1 atoms
  using lattice units in orthogonal box = (68.195723 16.754678 73.577203) to (114.37642 59.982022 122.39563)
  create_atoms CPU = 0.000 seconds
create_atoms 4 single 92.33478000000001 38.8857 81.1040359885387
Created 1 atoms
  using lattice units in orthogonal box = (68.195723 16.754678 73.577203) to (114.37642 59.982022 122.39563)
  create_atoms CPU = 0.000 seconds
create_atoms 1 single 93.9425 41.2555 80.9129776504298
Created 1 atoms
  using lattice units in orthogonal box = (68.195723 16.754678 73.577203) to (114.37642 59.982022 122.39563)
  create_atoms CPU = 0.000 seconds
create_atoms 1 single 95.3602 39.4288 79.16122865329513
Created 1 atoms
  using lattice units in orthogonal box = (68.195723 16.754678 73.577203) to (114.37642 59.982022 122.39563)
  create_atoms CPU = 0.000 seconds
create_atoms 5 single 96.46256 42.1786 80.15182957020058
Created 1 atoms
  using lattice units in orthogonal box = (68.195723 16.754678 73.577203) to (114.37642 59.982022 122.39563)
  create_atoms CPU = 0.000 seconds
create_atoms 1 single 75.18773999999999 43.697 80.8908093982808
Created 1 atoms
  using lattice units in orthogonal box = (68.195723 16.754678 73.577203) to (114.37642 59.982022 122.39563)
  create_atoms CPU = 0.000 seconds
create_atoms 3 single 75.80164 43.3492 78.2751841833811
Created 1 atoms
  using lattice units in orthogonal box = (68.195723 16.754678 73.577203) to (114.37642 59.982022 122.39563)
  create_atoms CPU = 0.000 seconds
create_atoms 1 single 77.59562000000001 45.5629 79.89575197707737
Created 1 atoms
  using lattice units in orthogonal box = (68.195723 16.754678 73.577203) to (114.37642 59.982022 122.39563)
  create_atoms CPU = 0.000 seconds
create_atoms 5 single 79.04086 45.7224 77.76531438395416
Created 1 atoms
  using lattice units in orthogonal box = (68.195723 16.754678 73.577203) to (114.37642 59.982022 122.39563)
  create_atoms CPU = 0.000 seconds
create_atoms 5 single 79.52144 47.9968 79.68012573065903
Created 1 atoms
  using lattice units in orthogonal box = (68.195723 16.754678 73.577203) to (114.37642 59.982022 122.39563)
  create_atoms CPU = 0.000 seconds
create_atoms 4 single 83.07128 43.6221 75.74194716332379
Created 1 atoms
  using lattice units in orthogonal box = (68.195723 16.754678 73.577203) to (114.37642 59.982022 122.39563)
  create_atoms CPU = 0.000 seconds
create_atoms 2 single 80.3479 43.8363 80.08281088825215
Created 1 atoms
  using lattice units in orthogonal box = (68.195723 16.754678 73.577203) to (114.37642 59.982022 122.39563)
  create_atoms CPU = 0.000 seconds
create_atoms 1 single 81.16004000000001 43.9325 77.4775841833811
Created 1 atoms
  using lattice units in orthogonal box = (68.195723 16.754678 73.577203) to (114.37642 59.982022 122.39563)
  create_atoms CPU = 0.000 seconds
create_atoms 1 single 83.62308 45.8998 78.33357581661892
Created 1 atoms
  using lattice units in orthogonal box = (68.195723 16.754678 73.577203) to (114.37642 59.982022 122.39563)
  create_atoms CPU = 0.000 seconds
create_atoms 3 single 81.67862000000001 46.0351 79.73577489971348
Created 1 atoms
  using lattice units in orthogonal box = (68.195723 16.754678 73.577203) to (114.37642 59.982022 122.39563)
  create_atoms CPU = 0.000 seconds
create_atoms 1 single 83.30264 44.0658 81.16391312320917
Created 1 atoms
  using lattice units in orthogonal box = (68.195723 16.754678 73.577203) to (114.37642 59.982022 122.39563)
  create_atoms CPU = 0.000 seconds
create_atoms 1 single 86.00064 44.2055 77.65984378223497
Created 1 atoms
  using lattice units in orthogonal box = (68.195723 16.754678 73.577203) to (114.37642 59.982022 122.39563)
  create_atoms CPU = 0.000 seconds
create_atoms 2 single 88.86568 45.3817 81.08632424068769
Created 1 atoms
  using lattice units in orthogonal box = (68.195723 16.754678 73.577203) to (114.37642 59.982022 122.39563)
  create_atoms CPU = 0.000 seconds
create_atoms 1 single 86.74824 46.8319 79.3173205730659
Created 1 atoms
  using lattice units in orthogonal box = (68.195723 16.754678 73.577203) to (114.37642 59.982022 122.39563)
  create_atoms CPU = 0.000 seconds
create_atoms 1 single 89.05496000000001 45.3681 78.23324733524355
Created 1 atoms
  using lattice units in orthogonal box = (68.195723 16.754678 73.577203) to (114.37642 59.982022 122.39563)
  create_atoms CPU = 0.000 seconds
create_atoms 2 single 89.59524 47.7642 79.78582487106017
Created 1 atoms
  using lattice units in orthogonal box = (68.195723 16.754678 73.577203) to (114.37642 59.982022 122.39563)
  create_atoms CPU = 0.000 seconds
create_atoms 1 single 86.5169 43.9939 81.06267048710602
Created 1 atoms
  using lattice units in orthogonal box = (68.195723 16.754678 73.577203) to (114.37642 59.982022 122.39563)
  create_atoms CPU = 0.000 seconds
create_atoms 1 single 90.89884 43.7017 76.90452343839543
Created 1 atoms
  using lattice units in orthogonal box = (68.195723 16.754678 73.577203) to (114.37642 59.982022 122.39563)
  create_atoms CPU = 0.000 seconds
create_atoms 2 single 91.45938 43.6098 79.88135404011462
Created 1 atoms
  using lattice units in orthogonal box = (68.195723 16.754678 73.577203) to (114.37642 59.982022 122.39563)
  create_atoms CPU = 0.000 seconds
create_atoms 2 single 93.9681 43.8652 79.80685042979943
Created 1 atoms
  using lattice units in orthogonal box = (68.195723 16.754678 73.577203) to (114.37642 59.982022 122.39563)
  create_atoms CPU = 0.000 seconds
create_atoms 1 single 92.06716 46.1428 78.88515392550144
Created 1 atoms
  using lattice units in orthogonal box = (68.195723 16.754678 73.577203) to (114.37642 59.982022 122.39563)
  create_atoms CPU = 0.000 seconds
create_atoms 4 single 97.11468 45.2181 80.93720275071634
Created 1 atoms
  using lattice units in orthogonal box = (68.195723 16.754678 73.577203) to (114.37642 59.982022 122.39563)
  create_atoms CPU = 0.000 seconds
create_atoms 1 single 81.86784 48.3047 78.50086613180515
Created 1 atoms
  using lattice units in orthogonal box = (68.195723 16.754678 73.577203) to (114.37642 59.982022 122.39563)
  create_atoms CPU = 0.000 seconds
create_atoms 2 single 81.50628 50.0154 80.6378170773639
Created 1 atoms
  using lattice units in orthogonal box = (68.195723 16.754678 73.577203) to (114.37642 59.982022 122.39563)
  create_atoms CPU = 0.000 seconds
create_atoms 1 single 85.02538 48.9366 79.99276664756447
Created 1 atoms
  using lattice units in orthogonal box = (68.195723 16.754678 73.577203) to (114.37642 59.982022 122.39563)
  create_atoms CPU = 0.000 seconds
create_atoms 2 single 87.16246000000001 22.6264 86.16239690544414
Created 1 atoms
  using lattice units in orthogonal box = (68.195723 16.754678 73.577203) to (114.37642 59.982022 122.39563)
  create_atoms CPU = 0.000 seconds
create_atoms 1 single 89.64066 23.4217 85.84644217765045
Created 1 atoms
  using lattice units in orthogonal box = (68.195723 16.754678 73.577203) to (114.37642 59.982022 122.39563)
  create_atoms CPU = 0.000 seconds
create_atoms 1 single 75.44446 26.8078 85.1465424641834
Created 1 atoms
  using lattice units in orthogonal box = (68.195723 16.754678 73.577203) to (114.37642 59.982022 122.39563)
  create_atoms CPU = 0.000 seconds
create_atoms 3 single 77.56402 25.184 84.75448435530086
Created 1 atoms
  using lattice units in orthogonal box = (68.195723 16.754678 73.577203) to (114.37642 59.982022 122.39563)
  create_atoms CPU = 0.000 seconds
create_atoms 3 single 77.54034 27.7613 84.40973375358168
Created 1 atoms
  using lattice units in orthogonal box = (68.195723 16.754678 73.577203) to (114.37642 59.982022 122.39563)
  create_atoms CPU = 0.000 seconds
create_atoms 1 single 79.73816 26.4182 83.89643587392551
Created 1 atoms
  using lattice units in orthogonal box = (68.195723 16.754678 73.577203) to (114.37642 59.982022 122.39563)
  create_atoms CPU = 0.000 seconds
create_atoms 1 single 80.30418 23.9642 86.25986865329514
Created 1 atoms
  using lattice units in orthogonal box = (68.195723 16.754678 73.577203) to (114.37642 59.982022 122.39563)
  create_atoms CPU = 0.000 seconds
create_atoms 2 single 85.5527 24.263 86.7669959885387
Created 1 atoms
  using lattice units in orthogonal box = (68.195723 16.754678 73.577203) to (114.37642 59.982022 122.39563)
  create_atoms CPU = 0.000 seconds
create_atoms 1 single 82.10288 25.5922 82.31814773638969
Created 1 atoms
  using lattice units in orthogonal box = (68.195723 16.754678 73.577203) to (114.37642 59.982022 122.39563)
  create_atoms CPU = 0.000 seconds
create_atoms 3 single 82.09518 27.8257 84.17730991404012
Created 1 atoms
  using lattice units in orthogonal box = (68.195723 16.754678 73.577203) to (114.37642 59.982022 122.39563)
  create_atoms CPU = 0.000 seconds
create_atoms 4 single 84.8307 24.0573 83.63601604584527
Created 1 atoms
  using lattice units in orthogonal box = (68.195723 16.754678 73.577203) to (114.37642 59.982022 122.39563)
  create_atoms CPU = 0.000 seconds
create_atoms 1 single 82.7603 25.1262 85.5288876790831
Created 1 atoms
  using lattice units in orthogonal box = (68.195723 16.754678 73.577203) to (114.37642 59.982022 122.39563)
  create_atoms CPU = 0.000 seconds
create_atoms 1 single 84.83384 27.1441 84.1446288825215
Created 1 atoms
  using lattice units in orthogonal box = (68.195723 16.754678 73.577203) to (114.37642 59.982022 122.39563)
  create_atoms CPU = 0.000 seconds
create_atoms 3 single 87.94726 23.8627 82.86572641833811
Created 1 atoms
  using lattice units in orthogonal box = (68.195723 16.754678 73.577203) to (114.37642 59.982022 122.39563)
  create_atoms CPU = 0.000 seconds
create_atoms 1 single 86.20902000000001 26.0614 81.95202876790832
Created 1 atoms
  using lattice units in orthogonal box = (68.195723 16.754678 73.577203) to (114.37642 59.982022 122.39563)
  create_atoms CPU = 0.000 seconds
create_atoms 4 single 87.26952000000001 25.3373 85.3955353581662
Created 1 atoms
  using lattice units in orthogonal box = (68.195723 16.754678 73.577203) to (114.37642 59.982022 122.39563)
  create_atoms CPU = 0.000 seconds
create_atoms 1 single 90.98128 23.996 83.54654315186247
Created 1 atoms
  using lattice units in orthogonal box = (68.195723 16.754678 73.577203) to (114.37642 59.982022 122.39563)
  create_atoms CPU = 0.000 seconds
create_atoms 3 single 89.29922 25.8244 84.22656
Created 1 atoms
  using lattice units in orthogonal box = (68.195723 16.754678 73.577203) to (114.37642 59.982022 122.39563)
  create_atoms CPU = 0.000 seconds
create_atoms 4 single 87.89958 27.9109 84.26015518624644
Created 1 atoms
  using lattice units in orthogonal box = (68.195723 16.754678 73.577203) to (114.37642 59.982022 122.39563)
  create_atoms CPU = 0.000 seconds
create_atoms 2 single 91.97174000000001 25.1436 86.39573489971347
Created 1 atoms
  using lattice units in orthogonal box = (68.195723 16.754678 73.577203) to (114.37642 59.982022 122.39563)
  create_atoms CPU = 0.000 seconds
create_atoms 1 single 91.45126 26.9524 83.70160664756447
Created 1 atoms
  using lattice units in orthogonal box = (68.195723 16.754678 73.577203) to (114.37642 59.982022 122.39563)
  create_atoms CPU = 0.000 seconds
create_atoms 1 single 94.11576000000001 26.6698 82.55319977077365
Created 1 atoms
  using lattice units in orthogonal box = (68.195723 16.754678 73.577203) to (114.37642 59.982022 122.39563)
  create_atoms CPU = 0.000 seconds
create_atoms 1 single 94.07446 25.0994 85.18939346704872
Created 1 atoms
  using lattice units in orthogonal box = (68.195723 16.754678 73.577203) to (114.37642 59.982022 122.39563)
  create_atoms CPU = 0.000 seconds
create_atoms 3 single 93.7699 28.4522 84.38905100286533
Created 1 atoms
  using lattice units in orthogonal box = (68.195723 16.754678 73.577203) to (114.37642 59.982022 122.39563)
  create_atoms CPU = 0.000 seconds
create_atoms 1 single 96.99482 26.5229 85.26469696275072
Created 1 atoms
  using lattice units in orthogonal box = (68.195723 16.754678 73.577203) to (114.37642 59.982022 122.39563)
  create_atoms CPU = 0.000 seconds
create_atoms 3 single 99.89304000000001 27.065 86.30946154727793
Created 1 atoms
  using lattice units in orthogonal box = (68.195723 16.754678 73.577203) to (114.37642 59.982022 122.39563)
  create_atoms CPU = 0.000 seconds
create_atoms 5 single 71.61176 30.2144 86.65718315186247
Created 1 atoms
  using lattice units in orthogonal box = (68.195723 16.754678 73.577203) to (114.37642 59.982022 122.39563)
  create_atoms CPU = 0.000 seconds
create_atoms 1 single 75.22236000000001 29.3477 83.37765306590259
Created 1 atoms
  using lattice units in orthogonal box = (68.195723 16.754678 73.577203) to (114.37642 59.982022 122.39563)
  create_atoms CPU = 0.000 seconds
create_atoms 1 single 74.86934 32.2291 82.79567931232091
Created 1 atoms
  using lattice units in orthogonal box = (68.195723 16.754678 73.577203) to (114.37642 59.982022 122.39563)
  create_atoms CPU = 0.000 seconds
create_atoms 1 single 74.2043 29.3183 86.13965730659025
Created 1 atoms
  using lattice units in orthogonal box = (68.195723 16.754678 73.577203) to (114.37642 59.982022 122.39563)
  create_atoms CPU = 0.000 seconds
create_atoms 2 single 75.8222 31.5057 85.96653925501433
Created 1 atoms
  using lattice units in orthogonal box = (68.195723 16.754678 73.577203) to (114.37642 59.982022 122.39563)
  create_atoms CPU = 0.000 seconds
create_atoms 1 single 72.91392 32.2351 85.2218459598854
Created 1 atoms
  using lattice units in orthogonal box = (68.195723 16.754678 73.577203) to (114.37642 59.982022 122.39563)
  create_atoms CPU = 0.000 seconds
create_atoms 1 single 77.80712000000001 28.7317 81.94974338108884
Created 1 atoms
  using lattice units in orthogonal box = (68.195723 16.754678 73.577203) to (114.37642 59.982022 122.39563)
  create_atoms CPU = 0.000 seconds
create_atoms 1 single 80.67254000000001 30.2662 83.30189249283669
Created 1 atoms
  using lattice units in orthogonal box = (68.195723 16.754678 73.577203) to (114.37642 59.982022 122.39563)
  create_atoms CPU = 0.000 seconds
create_atoms 1 single 77.92224 30.9282 84.11948962750716
Created 1 atoms
  using lattice units in orthogonal box = (68.195723 16.754678 73.577203) to (114.37642 59.982022 122.39563)
  create_atoms CPU = 0.000 seconds
create_atoms 1 single 79.48902 32.4981 81.19785111747852
Created 1 atoms
  using lattice units in orthogonal box = (68.195723 16.754678 73.577203) to (114.37642 59.982022 122.39563)
  create_atoms CPU = 0.000 seconds
create_atoms 3 single 79.82509999999999 28.9009 85.2820659025788
Created 1 atoms
  using lattice units in orthogonal box = (68.195723 16.754678 73.577203) to (114.37642 59.982022 122.39563)
  create_atoms CPU = 0.000 seconds
create_atoms 1 single 80.31302 33.0406 84.59736401146132
Created 1 atoms
  using lattice units in orthogonal box = (68.195723 16.754678 73.577203) to (114.37642 59.982022 122.39563)
  create_atoms CPU = 0.000 seconds
create_atoms 1 single 82.09506 30.6003 86.7394570773639
Created 1 atoms
  using lattice units in orthogonal box = (68.195723 16.754678 73.577203) to (114.37642 59.982022 122.39563)
  create_atoms CPU = 0.000 seconds
create_atoms 1 single 83.28664 29.6144 82.74025868194843
Created 1 atoms
  using lattice units in orthogonal box = (68.195723 16.754678 73.577203) to (114.37642 59.982022 122.39563)
  create_atoms CPU = 0.000 seconds
create_atoms 2 single 82.38586000000001 32.2711 81.68646681948425
Created 1 atoms
  using lattice units in orthogonal box = (68.195723 16.754678 73.577203) to (114.37642 59.982022 122.39563)
  create_atoms CPU = 0.000 seconds
create_atoms 1 single 85.2229 31.798 82.4527570200573
Created 1 atoms
  using lattice units in orthogonal box = (68.195723 16.754678 73.577203) to (114.37642 59.982022 122.39563)
  create_atoms CPU = 0.000 seconds
create_atoms 2 single 84.12599999999999 29.2523 85.84027163323782
Created 1 atoms
  using lattice units in orthogonal box = (68.195723 16.754678 73.577203) to (114.37642 59.982022 122.39563)
  create_atoms CPU = 0.000 seconds
create_atoms 1 single 83.71326 31.998 84.99856366762178
Created 1 atoms
  using lattice units in orthogonal box = (68.195723 16.754678 73.577203) to (114.37642 59.982022 122.39563)
  create_atoms CPU = 0.000 seconds
create_atoms 1 single 86.72864 32.9023 85.7318300286533
Created 1 atoms
  using lattice units in orthogonal box = (68.195723 16.754678 73.577203) to (114.37642 59.982022 122.39563)
  create_atoms CPU = 0.000 seconds
create_atoms 2 single 86.12888000000001 30.0268 84.89720676217765
Created 1 atoms
  using lattice units in orthogonal box = (68.195723 16.754678 73.577203) to (114.37642 59.982022 122.39563)
  create_atoms CPU = 0.000 seconds
create_atoms 2 single 85.74502 28.9799 82.15371415472781
Created 1 atoms
  using lattice units in orthogonal box = (68.195723 16.754678 73.577203) to (114.37642 59.982022 122.39563)
  create_atoms CPU = 0.000 seconds
create_atoms 1 single 88.6638 28.7673 81.56774097421204
Created 1 atoms
  using lattice units in orthogonal box = (68.195723 16.754678 73.577203) to (114.37642 59.982022 122.39563)
  create_atoms CPU = 0.000 seconds
create_atoms 1 single 88.22416 30.7481 83.68503759312321
Created 1 atoms
  using lattice units in orthogonal box = (68.195723 16.754678 73.577203) to (114.37642 59.982022 122.39563)
  create_atoms CPU = 0.000 seconds
create_atoms 4 single 90.60188000000001 28.8362 85.5479706590258
Created 1 atoms
  using lattice units in orthogonal box = (68.195723 16.754678 73.577203) to (114.37642 59.982022 122.39563)
  create_atoms CPU = 0.000 seconds
create_atoms 4 single 91.05404 32.3234 84.4245887679083
Created 1 atoms
  using lattice units in orthogonal box = (68.195723 16.754678 73.577203) to (114.37642 59.982022 122.39563)
  create_atoms CPU = 0.000 seconds
create_atoms 3 single 95.05392 32.5755 82.27655369627509
Created 1 atoms
  using lattice units in orthogonal box = (68.195723 16.754678 73.577203) to (114.37642 59.982022 122.39563)
  create_atoms CPU = 0.000 seconds
create_atoms 4 single 91.41334 29.9702 83.08192401146133
Created 1 atoms
  using lattice units in orthogonal box = (68.195723 16.754678 73.577203) to (114.37642 59.982022 122.39563)
  create_atoms CPU = 0.000 seconds
create_atoms 1 single 93.53528000000001 29.499 81.56111335243553
Created 1 atoms
  using lattice units in orthogonal box = (68.195723 16.754678 73.577203) to (114.37642 59.982022 122.39563)
  create_atoms CPU = 0.000 seconds
create_atoms 1 single 92.06742 32.4645 81.69206601719198
Created 1 atoms
  using lattice units in orthogonal box = (68.195723 16.754678 73.577203) to (114.37642 59.982022 122.39563)
  create_atoms CPU = 0.000 seconds
create_atoms 1 single 94.63248 31.1311 84.43670131805159
Created 1 atoms
  using lattice units in orthogonal box = (68.195723 16.754678 73.577203) to (114.37642 59.982022 122.39563)
  create_atoms CPU = 0.000 seconds
create_atoms 4 single 93.10116000000001 30.311 86.26238257879656
Created 1 atoms
  using lattice units in orthogonal box = (68.195723 16.754678 73.577203) to (114.37642 59.982022 122.39563)
  create_atoms CPU = 0.000 seconds
create_atoms 3 single 96.11498 28.8756 83.78308068767909
Created 1 atoms
  using lattice units in orthogonal box = (68.195723 16.754678 73.577203) to (114.37642 59.982022 122.39563)
  create_atoms CPU = 0.000 seconds
create_atoms 3 single 97.21506 31.13 84.30494876790831
Created 1 atoms
  using lattice units in orthogonal box = (68.195723 16.754678 73.577203) to (114.37642 59.982022 122.39563)
  create_atoms CPU = 0.000 seconds
create_atoms 1 single 96.30316 30.6328 81.33108916905444
Created 1 atoms
  using lattice units in orthogonal box = (68.195723 16.754678 73.577203) to (114.37642 59.982022 122.39563)
  create_atoms CPU = 0.000 seconds
create_atoms 1 single 98.90115999999999 29.262 83.64447197707736
Created 1 atoms
  using lattice units in orthogonal box = (68.195723 16.754678 73.577203) to (114.37642 59.982022 122.39563)
  create_atoms CPU = 0.000 seconds
create_atoms 3 single 97.63992 33.015 82.80390670487107
Created 1 atoms
  using lattice units in orthogonal box = (68.195723 16.754678 73.577203) to (114.37642 59.982022 122.39563)
  create_atoms CPU = 0.000 seconds
create_atoms 5 single 99.37895999999999 31.6255 81.99099461318052
Created 1 atoms
  using lattice units in orthogonal box = (68.195723 16.754678 73.577203) to (114.37642 59.982022 122.39563)
  create_atoms CPU = 0.000 seconds
create_atoms 5 single 98.58798 29.3114 86.39070704871061
Created 1 atoms
  using lattice units in orthogonal box = (68.195723 16.754678 73.577203) to (114.37642 59.982022 122.39563)
  create_atoms CPU = 0.000 seconds
create_atoms 1 single 99.86982 32.1264 85.30983335243555
Created 1 atoms
  using lattice units in orthogonal box = (68.195723 16.754678 73.577203) to (114.37642 59.982022 122.39563)
  create_atoms CPU = 0.000 seconds
create_atoms 1 single 101.7115 29.8015 86.53102979942693
Created 1 atoms
  using lattice units in orthogonal box = (68.195723 16.754678 73.577203) to (114.37642 59.982022 122.39563)
  create_atoms CPU = 0.000 seconds
create_atoms 3 single 102.83692 32.2138 85.84747060171921
Created 1 atoms
  using lattice units in orthogonal box = (68.195723 16.754678 73.577203) to (114.37642 59.982022 122.39563)
  create_atoms CPU = 0.000 seconds
create_atoms 1 single 71.82684 37.0667 84.00921971346706
Created 1 atoms
  using lattice units in orthogonal box = (68.195723 16.754678 73.577203) to (114.37642 59.982022 122.39563)
  create_atoms CPU = 0.000 seconds
create_atoms 5 single 70.48956 38.0601 86.22924446991404
Created 1 atoms
  using lattice units in orthogonal box = (68.195723 16.754678 73.577203) to (114.37642 59.982022 122.39563)
  create_atoms CPU = 0.000 seconds
create_atoms 1 single 73.60604000000001 34.632 83.81381914040115
Created 1 atoms
  using lattice units in orthogonal box = (68.195723 16.754678 73.577203) to (114.37642 59.982022 122.39563)
  create_atoms CPU = 0.000 seconds
create_atoms 2 single 75.00174 34.8164 81.78268160458452
Created 1 atoms
  using lattice units in orthogonal box = (68.195723 16.754678 73.577203) to (114.37642 59.982022 122.39563)
  create_atoms CPU = 0.000 seconds
create_atoms 1 single 73.53620000000001 37.1427 81.88712378223497
Created 1 atoms
  using lattice units in orthogonal box = (68.195723 16.754678 73.577203) to (114.37642 59.982022 122.39563)
  create_atoms CPU = 0.000 seconds
create_atoms 2 single 74.55792000000001 36.612 85.93145856733526
Created 1 atoms
  using lattice units in orthogonal box = (68.195723 16.754678 73.577203) to (114.37642 59.982022 122.39563)
  create_atoms CPU = 0.000 seconds
create_atoms 1 single 76.2699 36.4563 84.45761260744986
Created 1 atoms
  using lattice units in orthogonal box = (68.195723 16.754678 73.577203) to (114.37642 59.982022 122.39563)
  create_atoms CPU = 0.000 seconds
create_atoms 3 single 72.6618 35.1056 86.30763323782236
Created 1 atoms
  using lattice units in orthogonal box = (68.195723 16.754678 73.577203) to (114.37642 59.982022 122.39563)
  create_atoms CPU = 0.000 seconds
create_atoms 1 single 77.17836 33.6774 85.39050750716333
Created 1 atoms
  using lattice units in orthogonal box = (68.195723 16.754678 73.577203) to (114.37642 59.982022 122.39563)
  create_atoms CPU = 0.000 seconds
create_atoms 5 single 77.43532 33.6528 82.39482246418339
Created 1 atoms
  using lattice units in orthogonal box = (68.195723 16.754678 73.577203) to (114.37642 59.982022 122.39563)
  create_atoms CPU = 0.000 seconds
create_atoms 3 single 79.71966 35.2129 82.33151724928366
Created 1 atoms
  using lattice units in orthogonal box = (68.195723 16.754678 73.577203) to (114.37642 59.982022 122.39563)
  create_atoms CPU = 0.000 seconds
create_atoms 1 single 77.03196 36.686 81.7150341547278
Created 1 atoms
  using lattice units in orthogonal box = (68.195723 16.754678 73.577203) to (114.37642 59.982022 122.39563)
  create_atoms CPU = 0.000 seconds
create_atoms 1 single 79.86512 37.7594 83.8397582808023
Created 1 atoms
  using lattice units in orthogonal box = (68.195723 16.754678 73.577203) to (114.37642 59.982022 122.39563)
  create_atoms CPU = 0.000 seconds
create_atoms 3 single 78.78656000000001 35.4865 84.41579002865329
Created 1 atoms
  using lattice units in orthogonal box = (68.195723 16.754678 73.577203) to (114.37642 59.982022 122.39563)
  create_atoms CPU = 0.000 seconds
create_atoms 3 single 81.54958 35.6021 85.1154612034384
Created 1 atoms
  using lattice units in orthogonal box = (68.195723 16.754678 73.577203) to (114.37642 59.982022 122.39563)
  create_atoms CPU = 0.000 seconds
create_atoms 1 single 79.03384000000001 37.6388 86.58599335243554
Created 1 atoms
  using lattice units in orthogonal box = (68.195723 16.754678 73.577203) to (114.37642 59.982022 122.39563)
  create_atoms CPU = 0.000 seconds
create_atoms 3 single 82.12478 34.035 83.35971277936963
Created 1 atoms
  using lattice units in orthogonal box = (68.195723 16.754678 73.577203) to (114.37642 59.982022 122.39563)
  create_atoms CPU = 0.000 seconds
create_atoms 1 single 84.65438 34.5699 82.86378383954155
Created 1 atoms
  using lattice units in orthogonal box = (68.195723 16.754678 73.577203) to (114.37642 59.982022 122.39563)
  create_atoms CPU = 0.000 seconds
create_atoms 1 single 82.41068 36.6018 82.69352252148997
Created 1 atoms
  using lattice units in orthogonal box = (68.195723 16.754678 73.577203) to (114.37642 59.982022 122.39563)
  create_atoms CPU = 0.000 seconds
create_atoms 5 single 84.55424000000001 35.2075 85.73240137535818
Created 1 atoms
  using lattice units in orthogonal box = (68.195723 16.754678 73.577203) to (114.37642 59.982022 122.39563)
  create_atoms CPU = 0.000 seconds
create_atoms 3 single 85.34958 37.2817 84.46298326647565
Created 1 atoms
  using lattice units in orthogonal box = (68.195723 16.754678 73.577203) to (114.37642 59.982022 122.39563)
  create_atoms CPU = 0.000 seconds
create_atoms 1 single 83.13858 37.9208 85.6582405730659
Created 1 atoms
  using lattice units in orthogonal box = (68.195723 16.754678 73.577203) to (114.37642 59.982022 122.39563)
  create_atoms CPU = 0.000 seconds
create_atoms 1 single 86.64918 36.5758 82.27186865329513
Created 1 atoms
  using lattice units in orthogonal box = (68.195723 16.754678 73.577203) to (114.37642 59.982022 122.39563)
  create_atoms CPU = 0.000 seconds
create_atoms 3 single 87.1387 35.477 85.08495128939828
Created 1 atoms
  using lattice units in orthogonal box = (68.195723 16.754678 73.577203) to (114.37642 59.982022 122.39563)
  create_atoms CPU = 0.000 seconds
create_atoms 1 single 88.14178 33.7033 83.52254659025787
Created 1 atoms
  using lattice units in orthogonal box = (68.195723 16.754678 73.577203) to (114.37642 59.982022 122.39563)
  create_atoms CPU = 0.000 seconds
create_atoms 1 single 89.62198 36.2661 84.8252170773639
Created 1 atoms
  using lattice units in orthogonal box = (68.195723 16.754678 73.577203) to (114.37642 59.982022 122.39563)
  create_atoms CPU = 0.000 seconds
create_atoms 5 single 90.29038 37.4234 82.05018613180516
Created 1 atoms
  using lattice units in orthogonal box = (68.195723 16.754678 73.577203) to (114.37642 59.982022 122.39563)
  create_atoms CPU = 0.000 seconds
create_atoms 2 single 88.07192 37.8451 86.1457135816619
Created 1 atoms
  using lattice units in orthogonal box = (68.195723 16.754678 73.577203) to (114.37642 59.982022 122.39563)
  create_atoms CPU = 0.000 seconds
create_atoms 4 single 91.17718 34.7122 83.13688756446992
Created 1 atoms
  using lattice units in orthogonal box = (68.195723 16.754678 73.577203) to (114.37642 59.982022 122.39563)
  create_atoms CPU = 0.000 seconds
create_atoms 3 single 93.98502 33.8951 83.94717146131805
Created 1 atoms
  using lattice units in orthogonal box = (68.195723 16.754678 73.577203) to (114.37642 59.982022 122.39563)
  create_atoms CPU = 0.000 seconds
create_atoms 1 single 93.47166 36.3191 82.6783246991404
Created 1 atoms
  using lattice units in orthogonal box = (68.195723 16.754678 73.577203) to (114.37642 59.982022 122.39563)
  create_atoms CPU = 0.000 seconds
create_atoms 2 single 94.74282000000001 35.6021 86.1554264756447
Created 1 atoms
  using lattice units in orthogonal box = (68.195723 16.754678 73.577203) to (114.37642 59.982022 122.39563)
  create_atoms CPU = 0.000 seconds
create_atoms 4 single 92.29458 34.6323 86.25701191977078
Created 1 atoms
  using lattice units in orthogonal box = (68.195723 16.754678 73.577203) to (114.37642 59.982022 122.39563)
  create_atoms CPU = 0.000 seconds
create_atoms 4 single 92.4723 37.1684 85.08780802292264
Created 1 atoms
  using lattice units in orthogonal box = (68.195723 16.754678 73.577203) to (114.37642 59.982022 122.39563)
  create_atoms CPU = 0.000 seconds
create_atoms 1 single 96.83234 33.6573 85.16162601719199
Created 1 atoms
  using lattice units in orthogonal box = (68.195723 16.754678 73.577203) to (114.37642 59.982022 122.39563)
  create_atoms CPU = 0.000 seconds
create_atoms 1 single 96.14902000000001 35.3001 82.197136504298
Created 1 atoms
  using lattice units in orthogonal box = (68.195723 16.754678 73.577203) to (114.37642 59.982022 122.39563)
  create_atoms CPU = 0.000 seconds
create_atoms 1 single 96.5585 36.5891 85.02096045845272
Created 1 atoms
  using lattice units in orthogonal box = (68.195723 16.754678 73.577203) to (114.37642 59.982022 122.39563)
  create_atoms CPU = 0.000 seconds
create_atoms 2 single 98.3262 37.8352 83.76056962750717
Created 1 atoms
  using lattice units in orthogonal box = (68.195723 16.754678 73.577203) to (114.37642 59.982022 122.39563)
  create_atoms CPU = 0.000 seconds
create_atoms 1 single 100.17458 37.0879 82.52440389684814
Created 1 atoms
  using lattice units in orthogonal box = (68.195723 16.754678 73.577203) to (114.37642 59.982022 122.39563)
  create_atoms CPU = 0.000 seconds
create_atoms 1 single 99.30908 35.224 84.76065489971347
Created 1 atoms
  using lattice units in orthogonal box = (68.195723 16.754678 73.577203) to (114.37642 59.982022 122.39563)
  create_atoms CPU = 0.000 seconds
create_atoms 1 single 100.89620000000001 37.682 86.40704756446992
Created 1 atoms
  using lattice units in orthogonal box = (68.195723 16.754678 73.577203) to (114.37642 59.982022 122.39563)
  create_atoms CPU = 0.000 seconds
create_atoms 1 single 101.319 33.8858 83.58973696275072
Created 1 atoms
  using lattice units in orthogonal box = (68.195723 16.754678 73.577203) to (114.37642 59.982022 122.39563)
  create_atoms CPU = 0.000 seconds
create_atoms 2 single 102.57386 36.2935 84.87629547277938
Created 1 atoms
  using lattice units in orthogonal box = (68.195723 16.754678 73.577203) to (114.37642 59.982022 122.39563)
  create_atoms CPU = 0.000 seconds
create_atoms 1 single 71.1409 41.0096 86.25221260744986
Created 1 atoms
  using lattice units in orthogonal box = (68.195723 16.754678 73.577203) to (114.37642 59.982022 122.39563)
  create_atoms CPU = 0.000 seconds
create_atoms 1 single 72.88028 42.625 84.58182338108882
Created 1 atoms
  using lattice units in orthogonal box = (68.195723 16.754678 73.577203) to (114.37642 59.982022 122.39563)
  create_atoms CPU = 0.000 seconds
create_atoms 5 single 71.68858 39.9821 83.53740160458453
Created 1 atoms
  using lattice units in orthogonal box = (68.195723 16.754678 73.577203) to (114.37642 59.982022 122.39563)
  create_atoms CPU = 0.000 seconds
create_atoms 2 single 74.25888 38.9231 84.1538846991404
Created 1 atoms
  using lattice units in orthogonal box = (68.195723 16.754678 73.577203) to (114.37642 59.982022 122.39563)
  create_atoms CPU = 0.000 seconds
create_atoms 1 single 74.26812 41.1907 82.396536504298
Created 1 atoms
  using lattice units in orthogonal box = (68.195723 16.754678 73.577203) to (114.37642 59.982022 122.39563)
  create_atoms CPU = 0.000 seconds
create_atoms 4 single 75.65082 41.3066 85.62178865329514
Created 1 atoms
  using lattice units in orthogonal box = (68.195723 16.754678 73.577203) to (114.37642 59.982022 122.39563)
  create_atoms CPU = 0.000 seconds
create_atoms 1 single 73.3646 38.8 86.71614613180516
Created 1 atoms
  using lattice units in orthogonal box = (68.195723 16.754678 73.577203) to (114.37642 59.982022 122.39563)
  create_atoms CPU = 0.000 seconds
create_atoms 3 single 76.35866 41.0826 81.26766968481375
Created 1 atoms
  using lattice units in orthogonal box = (68.195723 16.754678 73.577203) to (114.37642 59.982022 122.39563)
  create_atoms CPU = 0.000 seconds
create_atoms 2 single 77.17132 42.2039 83.83690154727795
Created 1 atoms
  using lattice units in orthogonal box = (68.195723 16.754678 73.577203) to (114.37642 59.982022 122.39563)
  create_atoms CPU = 0.000 seconds
create_atoms 1 single 79.43696 40.7561 83.30852011461319
Created 1 atoms
  using lattice units in orthogonal box = (68.195723 16.754678 73.577203) to (114.37642 59.982022 122.39563)
  create_atoms CPU = 0.000 seconds
create_atoms 1 single 76.81402 39.2145 83.55637031518624
Created 1 atoms
  using lattice units in orthogonal box = (68.195723 16.754678 73.577203) to (114.37642 59.982022 122.39563)
  create_atoms CPU = 0.000 seconds
create_atoms 5 single 81.1914 39.6525 86.48417936962751
Created 1 atoms
  using lattice units in orthogonal box = (68.195723 16.754678 73.577203) to (114.37642 59.982022 122.39563)
  create_atoms CPU = 0.000 seconds
create_atoms 4 single 78.43638 40.6155 86.35356951289398
Created 1 atoms
  using lattice units in orthogonal box = (68.195723 16.754678 73.577203) to (114.37642 59.982022 122.39563)
  create_atoms CPU = 0.000 seconds
create_atoms 4 single 80.10226 42.5956 85.77388114613181
Created 1 atoms
  using lattice units in orthogonal box = (68.195723 16.754678 73.577203) to (114.37642 59.982022 122.39563)
  create_atoms CPU = 0.000 seconds
create_atoms 2 single 82.31494 41.3286 85.08506555873926
Created 1 atoms
  using lattice units in orthogonal box = (68.195723 16.754678 73.577203) to (114.37642 59.982022 122.39563)
  create_atoms CPU = 0.000 seconds
create_atoms 2 single 81.57624 39.1731 82.77968160458452
Created 1 atoms
  using lattice units in orthogonal box = (68.195723 16.754678 73.577203) to (114.37642 59.982022 122.39563)
  create_atoms CPU = 0.000 seconds
create_atoms 4 single 84.3377 38.8988 82.29392263610316
Created 1 atoms
  using lattice units in orthogonal box = (68.195723 16.754678 73.577203) to (114.37642 59.982022 122.39563)
  create_atoms CPU = 0.000 seconds
create_atoms 1 single 82.52706 41.4257 82.17382555873927
Created 1 atoms
  using lattice units in orthogonal box = (68.195723 16.754678 73.577203) to (114.37642 59.982022 122.39563)
  create_atoms CPU = 0.000 seconds
create_atoms 3 single 83.80326000000001 43.175 84.36322613180516
Created 1 atoms
  using lattice units in orthogonal box = (68.195723 16.754678 73.577203) to (114.37642 59.982022 122.39563)
  create_atoms CPU = 0.000 seconds
create_atoms 1 single 85.6406 41.9581 82.81099140401146
Created 1 atoms
  using lattice units in orthogonal box = (68.195723 16.754678 73.577203) to (114.37642 59.982022 122.39563)
  create_atoms CPU = 0.000 seconds
create_atoms 1 single 84.81778 40.2049 85.11660389684815
Created 1 atoms
  using lattice units in orthogonal box = (68.195723 16.754678 73.577203) to (114.37642 59.982022 122.39563)
  create_atoms CPU = 0.000 seconds
create_atoms 3 single 86.2878 42.6567 85.65344126074498
Created 1 atoms
  using lattice units in orthogonal box = (68.195723 16.754678 73.577203) to (114.37642 59.982022 122.39563)
  create_atoms CPU = 0.000 seconds
create_atoms 4 single 88.60092 38.898 83.33925856733525
Created 1 atoms
  using lattice units in orthogonal box = (68.195723 16.754678 73.577203) to (114.37642 59.982022 122.39563)
  create_atoms CPU = 0.000 seconds
create_atoms 4 single 88.41402 41.5253 82.46109868194843
Created 1 atoms
  using lattice units in orthogonal box = (68.195723 16.754678 73.577203) to (114.37642 59.982022 122.39563)
  create_atoms CPU = 0.000 seconds
create_atoms 1 single 90.74066 38.8503 86.344656504298
Created 1 atoms
  using lattice units in orthogonal box = (68.195723 16.754678 73.577203) to (114.37642 59.982022 122.39563)
  create_atoms CPU = 0.000 seconds
create_atoms 1 single 87.91524 40.5581 85.52557386819485
Created 1 atoms
  using lattice units in orthogonal box = (68.195723 16.754678 73.577203) to (114.37642 59.982022 122.39563)
  create_atoms CPU = 0.000 seconds
create_atoms 3 single 90.3392 41.5585 85.27235300859599
Created 1 atoms
  using lattice units in orthogonal box = (68.195723 16.754678 73.577203) to (114.37642 59.982022 122.39563)
  create_atoms CPU = 0.000 seconds
create_atoms 2 single 94.5124 38.4776 84.57702406876791
Created 1 atoms
  using lattice units in orthogonal box = (68.195723 16.754678 73.577203) to (114.37642 59.982022 122.39563)
  create_atoms CPU = 0.000 seconds
create_atoms 1 single 91.73062 39.9479 83.8911794842407
Created 1 atoms
  using lattice units in orthogonal box = (68.195723 16.754678 73.577203) to (114.37642 59.982022 122.39563)
  create_atoms CPU = 0.000 seconds
create_atoms 2 single 91.4755 41.6623 81.75914212034384
Created 1 atoms
  using lattice units in orthogonal box = (68.195723 16.754678 73.577203) to (114.37642 59.982022 122.39563)
  create_atoms CPU = 0.000 seconds
create_atoms 1 single 94.85646 41.1203 84.27980951289398
Created 1 atoms
  using lattice units in orthogonal box = (68.195723 16.754678 73.577203) to (114.37642 59.982022 122.39563)
  create_atoms CPU = 0.000 seconds
create_atoms 1 single 92.98192 42.6405 85.7943353581662
Created 1 atoms
  using lattice units in orthogonal box = (68.195723 16.754678 73.577203) to (114.37642 59.982022 122.39563)
  create_atoms CPU = 0.000 seconds
create_atoms 1 single 95.56158 38.5913 82.25758498567335
Created 1 atoms
  using lattice units in orthogonal box = (68.195723 16.754678 73.577203) to (114.37642 59.982022 122.39563)
  create_atoms CPU = 0.000 seconds
create_atoms 1 single 98.42045999999999 39.7139 81.45050063037249
Created 1 atoms
  using lattice units in orthogonal box = (68.195723 16.754678 73.577203) to (114.37642 59.982022 122.39563)
  create_atoms CPU = 0.000 seconds
create_atoms 1 single 99.90428 40.2776 84.70809100286533
Created 1 atoms
  using lattice units in orthogonal box = (68.195723 16.754678 73.577203) to (114.37642 59.982022 122.39563)
  create_atoms CPU = 0.000 seconds
create_atoms 3 single 97.02114 40.9215 83.06878303724929
Created 1 atoms
  using lattice units in orthogonal box = (68.195723 16.754678 73.577203) to (114.37642 59.982022 122.39563)
  create_atoms CPU = 0.000 seconds
create_atoms 1 single 99.26794 42.7653 82.86766899713467
Created 1 atoms
  using lattice units in orthogonal box = (68.195723 16.754678 73.577203) to (114.37642 59.982022 122.39563)
  create_atoms CPU = 0.000 seconds
create_atoms 1 single 97.5359 39.3547 85.77628080229226
Created 1 atoms
  using lattice units in orthogonal box = (68.195723 16.754678 73.577203) to (114.37642 59.982022 122.39563)
  create_atoms CPU = 0.000 seconds
create_atoms 1 single 98.21668000000001 42.5179 85.8856365616046
Created 1 atoms
  using lattice units in orthogonal box = (68.195723 16.754678 73.577203) to (114.37642 59.982022 122.39563)
  create_atoms CPU = 0.000 seconds
create_atoms 3 single 100.93378 42.6566 85.98276550143267
Created 1 atoms
  using lattice units in orthogonal box = (68.195723 16.754678 73.577203) to (114.37642 59.982022 122.39563)
  create_atoms CPU = 0.000 seconds
create_atoms 2 single 102.28386 41.8831 84.40093501432666
Created 1 atoms
  using lattice units in orthogonal box = (68.195723 16.754678 73.577203) to (114.37642 59.982022 122.39563)
  create_atoms CPU = 0.000 seconds
create_atoms 1 single 102.42592 39.0005 84.43910097421204
Created 1 atoms
  using lattice units in orthogonal box = (68.195723 16.754678 73.577203) to (114.37642 59.982022 122.39563)
  create_atoms CPU = 0.000 seconds
create_atoms 1 single 75.62376 46.6588 81.44764389684813
Created 1 atoms
  using lattice units in orthogonal box = (68.195723 16.754678 73.577203) to (114.37642 59.982022 122.39563)
  create_atoms CPU = 0.000 seconds
create_atoms 4 single 72.32598 43.353 81.35599988538684
Created 1 atoms
  using lattice units in orthogonal box = (68.195723 16.754678 73.577203) to (114.37642 59.982022 122.39563)
  create_atoms CPU = 0.000 seconds
create_atoms 2 single 73.25136 45.8356 82.0898375931232
Created 1 atoms
  using lattice units in orthogonal box = (68.195723 16.754678 73.577203) to (114.37642 59.982022 122.39563)
  create_atoms CPU = 0.000 seconds
create_atoms 1 single 75.42328 44.3004 84.08360905444125
Created 1 atoms
  using lattice units in orthogonal box = (68.195723 16.754678 73.577203) to (114.37642 59.982022 122.39563)
  create_atoms CPU = 0.000 seconds
create_atoms 1 single 74.69186 47.9439 84.03413042979943
Created 1 atoms
  using lattice units in orthogonal box = (68.195723 16.754678 73.577203) to (114.37642 59.982022 122.39563)
  create_atoms CPU = 0.000 seconds
create_atoms 1 single 73.22608000000001 45.644 85.14459988538684
Created 1 atoms
  using lattice units in orthogonal box = (68.195723 16.754678 73.577203) to (114.37642 59.982022 122.39563)
  create_atoms CPU = 0.000 seconds
create_atoms 2 single 80.50102 45.9814 81.55265742120343
Created 1 atoms
  using lattice units in orthogonal box = (68.195723 16.754678 73.577203) to (114.37642 59.982022 122.39563)
  create_atoms CPU = 0.000 seconds
create_atoms 4 single 78.11304 44.5104 83.26989707736391
Created 1 atoms
  using lattice units in orthogonal box = (68.195723 16.754678 73.577203) to (114.37642 59.982022 122.39563)
  create_atoms CPU = 0.000 seconds
create_atoms 1 single 80.92066000000001 43.515 83.07826739255016
Created 1 atoms
  using lattice units in orthogonal box = (68.195723 16.754678 73.577203) to (114.37642 59.982022 122.39563)
  create_atoms CPU = 0.000 seconds
create_atoms 2 single 78.3982 47.6133 82.01167736389685
Created 1 atoms
  using lattice units in orthogonal box = (68.195723 16.754678 73.577203) to (114.37642 59.982022 122.39563)
  create_atoms CPU = 0.000 seconds
create_atoms 4 single 77.5354 46.6746 84.53131633237822
Created 1 atoms
  using lattice units in orthogonal box = (68.195723 16.754678 73.577203) to (114.37642 59.982022 122.39563)
  create_atoms CPU = 0.000 seconds
create_atoms 4 single 80.25062000000001 46.2135 84.1065771919771
Created 1 atoms
  using lattice units in orthogonal box = (68.195723 16.754678 73.577203) to (114.37642 59.982022 122.39563)
  create_atoms CPU = 0.000 seconds
create_atoms 1 single 82.32542000000001 44.5059 86.28169409742121
Created 1 atoms
  using lattice units in orthogonal box = (68.195723 16.754678 73.577203) to (114.37642 59.982022 122.39563)
  create_atoms CPU = 0.000 seconds
create_atoms 2 single 85.1864 46.2748 81.2923518624642
Created 1 atoms
  using lattice units in orthogonal box = (68.195723 16.754678 73.577203) to (114.37642 59.982022 122.39563)
  create_atoms CPU = 0.000 seconds
create_atoms 2 single 85.67576000000001 44.7489 83.72617455587392
Created 1 atoms
  using lattice units in orthogonal box = (68.195723 16.754678 73.577203) to (114.37642 59.982022 122.39563)
  create_atoms CPU = 0.000 seconds
create_atoms 5 single 83.11378 45.71 83.67738154727795
Created 1 atoms
  using lattice units in orthogonal box = (68.195723 16.754678 73.577203) to (114.37642 59.982022 122.39563)
  create_atoms CPU = 0.000 seconds
create_atoms 1 single 83.11212 47.4973 86.14799896848137
Created 1 atoms
  using lattice units in orthogonal box = (68.195723 16.754678 73.577203) to (114.37642 59.982022 122.39563)
  create_atoms CPU = 0.000 seconds
create_atoms 1 single 85.94258 47.2321 85.19830647564471
Created 1 atoms
  using lattice units in orthogonal box = (68.195723 16.754678 73.577203) to (114.37642 59.982022 122.39563)
  create_atoms CPU = 0.000 seconds
create_atoms 1 single 83.41572 47.8484 81.84518693409741
Created 1 atoms
  using lattice units in orthogonal box = (68.195723 16.754678 73.577203) to (114.37642 59.982022 122.39563)
  create_atoms CPU = 0.000 seconds
create_atoms 4 single 85.4332 44.8632 86.57445214899714
Created 1 atoms
  using lattice units in orthogonal box = (68.195723 16.754678 73.577203) to (114.37642 59.982022 122.39563)
  create_atoms CPU = 0.000 seconds
create_atoms 1 single 88.36036 43.6332 84.76088343839542
Created 1 atoms
  using lattice units in orthogonal box = (68.195723 16.754678 73.577203) to (114.37642 59.982022 122.39563)
  create_atoms CPU = 0.000 seconds
create_atoms 1 single 90.53892 43.7588 83.18156687679084
Created 1 atoms
  using lattice units in orthogonal box = (68.195723 16.754678 73.577203) to (114.37642 59.982022 122.39563)
  create_atoms CPU = 0.000 seconds
create_atoms 1 single 87.80272000000001 46.4619 83.35697031518625
Created 1 atoms
  using lattice units in orthogonal box = (68.195723 16.754678 73.577203) to (114.37642 59.982022 122.39563)
  create_atoms CPU = 0.000 seconds
create_atoms 1 single 90.48724 47.2915 82.85738475644699
Created 1 atoms
  using lattice units in orthogonal box = (68.195723 16.754678 73.577203) to (114.37642 59.982022 122.39563)
  create_atoms CPU = 0.000 seconds
create_atoms 1 single 90.80398 45.7655 85.66738212034385
Created 1 atoms
  using lattice units in orthogonal box = (68.195723 16.754678 73.577203) to (114.37642 59.982022 122.39563)
  create_atoms CPU = 0.000 seconds
create_atoms 3 single 89.02364 47.5653 86.18662200573065
Created 1 atoms
  using lattice units in orthogonal box = (68.195723 16.754678 73.577203) to (114.37642 59.982022 122.39563)
  create_atoms CPU = 0.000 seconds
create_atoms 1 single 93.33672 43.6428 82.73705914040114
Created 1 atoms
  using lattice units in orthogonal box = (68.195723 16.754678 73.577203) to (114.37642 59.982022 122.39563)
  create_atoms CPU = 0.000 seconds
create_atoms 2 single 95.46566 43.9345 85.63847197707737
Created 1 atoms
  using lattice units in orthogonal box = (68.195723 16.754678 73.577203) to (114.37642 59.982022 122.39563)
  create_atoms CPU = 0.000 seconds
create_atoms 3 single 91.49616 45.6364 81.37108343839543
Created 1 atoms
  using lattice units in orthogonal box = (68.195723 16.754678 73.577203) to (114.37642 59.982022 122.39563)
  create_atoms CPU = 0.000 seconds
create_atoms 1 single 94.54636 46.0682 81.80359289398281
Created 1 atoms
  using lattice units in orthogonal box = (68.195723 16.754678 73.577203) to (114.37642 59.982022 122.39563)
  create_atoms CPU = 0.000 seconds
create_atoms 2 single 94.82388 48.0012 84.10931965616047
Created 1 atoms
  using lattice units in orthogonal box = (68.195723 16.754678 73.577203) to (114.37642 59.982022 122.39563)
  create_atoms CPU = 0.000 seconds
create_atoms 1 single 93.33444 45.9408 84.65712687679084
Created 1 atoms
  using lattice units in orthogonal box = (68.195723 16.754678 73.577203) to (114.37642 59.982022 122.39563)
  create_atoms CPU = 0.000 seconds
create_atoms 2 single 96.27716 45.9422 84.78716538681948
Created 1 atoms
  using lattice units in orthogonal box = (68.195723 16.754678 73.577203) to (114.37642 59.982022 122.39563)
  create_atoms CPU = 0.000 seconds
create_atoms 1 single 96.2385 43.4905 82.87155415472779
Created 1 atoms
  using lattice units in orthogonal box = (68.195723 16.754678 73.577203) to (114.37642 59.982022 122.39563)
  create_atoms CPU = 0.000 seconds
create_atoms 1 single 98.771 45.2538 84.45761260744986
Created 1 atoms
  using lattice units in orthogonal box = (68.195723 16.754678 73.577203) to (114.37642 59.982022 122.39563)
  create_atoms CPU = 0.000 seconds
create_atoms 1 single 97.20374 47.738 83.02764607449856
Created 1 atoms
  using lattice units in orthogonal box = (68.195723 16.754678 73.577203) to (114.37642 59.982022 122.39563)
  create_atoms CPU = 0.000 seconds
create_atoms 1 single 100.77676 47.5014 86.01384676217766
Created 1 atoms
  using lattice units in orthogonal box = (68.195723 16.754678 73.577203) to (114.37642 59.982022 122.39563)
  create_atoms CPU = 0.000 seconds
create_atoms 1 single 101.8353 44.8487 84.9821088825215
Created 1 atoms
  using lattice units in orthogonal box = (68.195723 16.754678 73.577203) to (114.37642 59.982022 122.39563)
  create_atoms CPU = 0.000 seconds
create_atoms 3 single 75.47394 49.6836 86.41116126074499
Created 1 atoms
  using lattice units in orthogonal box = (68.195723 16.754678 73.577203) to (114.37642 59.982022 122.39563)
  create_atoms CPU = 0.000 seconds
create_atoms 4 single 76.68432 51.6698 85.02987346704872
Created 1 atoms
  using lattice units in orthogonal box = (68.195723 16.754678 73.577203) to (114.37642 59.982022 122.39563)
  create_atoms CPU = 0.000 seconds
create_atoms 1 single 78.78642 50.2338 81.32640412607451
Created 1 atoms
  using lattice units in orthogonal box = (68.195723 16.754678 73.577203) to (114.37642 59.982022 122.39563)
  create_atoms CPU = 0.000 seconds
create_atoms 2 single 79.79336 48.8866 84.92028916905444
Created 1 atoms
  using lattice units in orthogonal box = (68.195723 16.754678 73.577203) to (114.37642 59.982022 122.39563)
  create_atoms CPU = 0.000 seconds
create_atoms 1 single 76.89564 49.4007 83.06764034383954
Created 1 atoms
  using lattice units in orthogonal box = (68.195723 16.754678 73.577203) to (114.37642 59.982022 122.39563)
  create_atoms CPU = 0.000 seconds
create_atoms 1 single 79.28664 51.6468 84.23947243553009
Created 1 atoms
  using lattice units in orthogonal box = (68.195723 16.754678 73.577203) to (114.37642 59.982022 122.39563)
  create_atoms CPU = 0.000 seconds
create_atoms 1 single 78.08696 49.0251 86.55891151862464
Created 1 atoms
  using lattice units in orthogonal box = (68.195723 16.754678 73.577203) to (114.37642 59.982022 122.39563)
  create_atoms CPU = 0.000 seconds
create_atoms 1 single 82.24432 50.3793 86.09543507163325
Created 1 atoms
  using lattice units in orthogonal box = (68.195723 16.754678 73.577203) to (114.37642 59.982022 122.39563)
  create_atoms CPU = 0.000 seconds
create_atoms 1 single 81.23904 48.578 83.04650051575932
Created 1 atoms
  using lattice units in orthogonal box = (68.195723 16.754678 73.577203) to (114.37642 59.982022 122.39563)
  create_atoms CPU = 0.000 seconds
create_atoms 1 single 81.70678000000001 51.7656 82.98033856733525
Created 1 atoms
  using lattice units in orthogonal box = (68.195723 16.754678 73.577203) to (114.37642 59.982022 122.39563)
  create_atoms CPU = 0.000 seconds
create_atoms 1 single 84.2193 51.1033 81.60716389684814
Created 1 atoms
  using lattice units in orthogonal box = (68.195723 16.754678 73.577203) to (114.37642 59.982022 122.39563)
  create_atoms CPU = 0.000 seconds
create_atoms 1 single 84.2593 49.911 84.43590143266476
Created 1 atoms
  using lattice units in orthogonal box = (68.195723 16.754678 73.577203) to (114.37642 59.982022 122.39563)
  create_atoms CPU = 0.000 seconds
create_atoms 3 single 84.11458 53.0581 84.76351163323784
Created 1 atoms
  using lattice units in orthogonal box = (68.195723 16.754678 73.577203) to (114.37642 59.982022 122.39563)
  create_atoms CPU = 0.000 seconds
create_atoms 2 single 86.1496 51.9529 84.33534441260745
Created 1 atoms
  using lattice units in orthogonal box = (68.195723 16.754678 73.577203) to (114.37642 59.982022 122.39563)
  create_atoms CPU = 0.000 seconds
create_atoms 2 single 86.36382 48.9744 83.22041845272207
Created 1 atoms
  using lattice units in orthogonal box = (68.195723 16.754678 73.577203) to (114.37642 59.982022 122.39563)
  create_atoms CPU = 0.000 seconds
create_atoms 2 single 87.92986 48.6181 81.61790521489972
Created 1 atoms
  using lattice units in orthogonal box = (68.195723 16.754678 73.577203) to (114.37642 59.982022 122.39563)
  create_atoms CPU = 0.000 seconds
create_atoms 1 single 87.6557 51.1766 82.60930601719197
Created 1 atoms
  using lattice units in orthogonal box = (68.195723 16.754678 73.577203) to (114.37642 59.982022 122.39563)
  create_atoms CPU = 0.000 seconds
create_atoms 1 single 89.88212 49.3802 84.771624756447
Created 1 atoms
  using lattice units in orthogonal box = (68.195723 16.754678 73.577203) to (114.37642 59.982022 122.39563)
  create_atoms CPU = 0.000 seconds
create_atoms 1 single 90.23638 50.1837 81.80507839541546
Created 1 atoms
  using lattice units in orthogonal box = (68.195723 16.754678 73.577203) to (114.37642 59.982022 122.39563)
  create_atoms CPU = 0.000 seconds
create_atoms 3 single 91.29574 51.9073 84.24004378223496
Created 1 atoms
  using lattice units in orthogonal box = (68.195723 16.754678 73.577203) to (114.37642 59.982022 122.39563)
  create_atoms CPU = 0.000 seconds
create_atoms 1 single 87.55272000000001 50.0215 86.2462706017192
Created 1 atoms
  using lattice units in orthogonal box = (68.195723 16.754678 73.577203) to (114.37642 59.982022 122.39563)
  create_atoms CPU = 0.000 seconds
create_atoms 1 single 89.63694 52.1587 85.9826512320917
Created 1 atoms
  using lattice units in orthogonal box = (68.195723 16.754678 73.577203) to (114.37642 59.982022 122.39563)
  create_atoms CPU = 0.000 seconds
create_atoms 1 single 92.52696 48.3001 81.42993214899714
Created 1 atoms
  using lattice units in orthogonal box = (68.195723 16.754678 73.577203) to (114.37642 59.982022 122.39563)
  create_atoms CPU = 0.000 seconds
create_atoms 1 single 93.39748 50.7228 83.43570189111749
Created 1 atoms
  using lattice units in orthogonal box = (68.195723 16.754678 73.577203) to (114.37642 59.982022 122.39563)
  create_atoms CPU = 0.000 seconds
create_atoms 2 single 92.65982 48.6452 84.90017776504298
Created 1 atoms
  using lattice units in orthogonal box = (68.195723 16.754678 73.577203) to (114.37642 59.982022 122.39563)
  create_atoms CPU = 0.000 seconds
create_atoms 1 single 94.65528 52.6065 86.02333111747852
Created 1 atoms
  using lattice units in orthogonal box = (68.195723 16.754678 73.577203) to (114.37642 59.982022 122.39563)
  create_atoms CPU = 0.000 seconds
create_atoms 1 single 95.38974 49.7156 86.46772458452723
Created 1 atoms
  using lattice units in orthogonal box = (68.195723 16.754678 73.577203) to (114.37642 59.982022 122.39563)
  create_atoms CPU = 0.000 seconds
create_atoms 2 single 97.40264 51.5285 86.15462659025789
Created 1 atoms
  using lattice units in orthogonal box = (68.195723 16.754678 73.577203) to (114.37642 59.982022 122.39563)
  create_atoms CPU = 0.000 seconds
create_atoms 3 single 96.16568000000001 50.0082 83.87449616045846
Created 1 atoms
  using lattice units in orthogonal box = (68.195723 16.754678 73.577203) to (114.37642 59.982022 122.39563)
  create_atoms CPU = 0.000 seconds
create_atoms 1 single 97.96418000000001 48.3009 86.28272252148997
Created 1 atoms
  using lattice units in orthogonal box = (68.195723 16.754678 73.577203) to (114.37642 59.982022 122.39563)
  create_atoms CPU = 0.000 seconds
create_atoms 3 single 79.30080000000001 53.8008 86.31106131805159
Created 1 atoms
  using lattice units in orthogonal box = (68.195723 16.754678 73.577203) to (114.37642 59.982022 122.39563)
  create_atoms CPU = 0.000 seconds
create_atoms 1 single 82.08036 53.3953 86.12983014326647
Created 1 atoms
  using lattice units in orthogonal box = (68.195723 16.754678 73.577203) to (114.37642 59.982022 122.39563)
  create_atoms CPU = 0.000 seconds
create_atoms 1 single 87.35086 53.7632 86.50577627507164
Created 1 atoms
  using lattice units in orthogonal box = (68.195723 16.754678 73.577203) to (114.37642 59.982022 122.39563)
  create_atoms CPU = 0.000 seconds
create_atoms 1 single 80.27136 22.9583 92.16210865329514
Created 1 atoms
  using lattice units in orthogonal box = (68.195723 16.754678 73.577203) to (114.37642 59.982022 122.39563)
  create_atoms CPU = 0.000 seconds
create_atoms 1 single 81.95756 22.0105 89.5961906017192
Created 1 atoms
  using lattice units in orthogonal box = (68.195723 16.754678 73.577203) to (114.37642 59.982022 122.39563)
  create_atoms CPU = 0.000 seconds
create_atoms 5 single 84.19384000000001 20.2186 91.66812229226362
Created 1 atoms
  using lattice units in orthogonal box = (68.195723 16.754678 73.577203) to (114.37642 59.982022 122.39563)
  create_atoms CPU = 0.000 seconds
create_atoms 1 single 83.5537 22.7206 87.59316332378224
Created 1 atoms
  using lattice units in orthogonal box = (68.195723 16.754678 73.577203) to (114.37642 59.982022 122.39563)
  create_atoms CPU = 0.000 seconds
create_atoms 3 single 84.86408 22.4964 90.67066521489973
Created 1 atoms
  using lattice units in orthogonal box = (68.195723 16.754678 73.577203) to (114.37642 59.982022 122.39563)
  create_atoms CPU = 0.000 seconds
create_atoms 1 single 86.795 22.0881 88.91925902578797
Created 1 atoms
  using lattice units in orthogonal box = (68.195723 16.754678 73.577203) to (114.37642 59.982022 122.39563)
  create_atoms CPU = 0.000 seconds
create_atoms 3 single 87.33508 23.2419 91.55853799426936
Created 1 atoms
  using lattice units in orthogonal box = (68.195723 16.754678 73.577203) to (114.37642 59.982022 122.39563)
  create_atoms CPU = 0.000 seconds
create_atoms 1 single 87.11110000000001 20.6711 91.93082750716333
Created 1 atoms
  using lattice units in orthogonal box = (68.195723 16.754678 73.577203) to (114.37642 59.982022 122.39563)
  create_atoms CPU = 0.000 seconds
create_atoms 1 single 89.8494 19.9973 91.43946934097421
Created 1 atoms
  using lattice units in orthogonal box = (68.195723 16.754678 73.577203) to (114.37642 59.982022 122.39563)
  create_atoms CPU = 0.000 seconds
create_atoms 2 single 89.47586 21.891 88.57062326647565
Created 1 atoms
  using lattice units in orthogonal box = (68.195723 16.754678 73.577203) to (114.37642 59.982022 122.39563)
  create_atoms CPU = 0.000 seconds
create_atoms 1 single 92.37454 21.4044 90.93736985673353
Created 1 atoms
  using lattice units in orthogonal box = (68.195723 16.754678 73.577203) to (114.37642 59.982022 122.39563)
  create_atoms CPU = 0.000 seconds
create_atoms 1 single 89.95414 22.8857 91.48814808022922
Created 1 atoms
  using lattice units in orthogonal box = (68.195723 16.754678 73.577203) to (114.37642 59.982022 122.39563)
  create_atoms CPU = 0.000 seconds
create_atoms 2 single 92.8923 22.7563 86.78756446991405
Created 1 atoms
  using lattice units in orthogonal box = (68.195723 16.754678 73.577203) to (114.37642 59.982022 122.39563)
  create_atoms CPU = 0.000 seconds
create_atoms 3 single 94.73172 19.695 91.7271995415473
Created 1 atoms
  using lattice units in orthogonal box = (68.195723 16.754678 73.577203) to (114.37642 59.982022 122.39563)
  create_atoms CPU = 0.000 seconds
create_atoms 1 single 94.82784 21.7182 89.73525638968482
Created 1 atoms
  using lattice units in orthogonal box = (68.195723 16.754678 73.577203) to (114.37642 59.982022 122.39563)
  create_atoms CPU = 0.000 seconds
create_atoms 1 single 96.26608 23.2778 87.38713570200574
Created 1 atoms
  using lattice units in orthogonal box = (68.195723 16.754678 73.577203) to (114.37642 59.982022 122.39563)
  create_atoms CPU = 0.000 seconds
create_atoms 5 single 96.71972 23.2256 92.20027461318053
Created 1 atoms
  using lattice units in orthogonal box = (68.195723 16.754678 73.577203) to (114.37642 59.982022 122.39563)
  create_atoms CPU = 0.000 seconds
create_atoms 1 single 98.15526000000001 22.0763 90.30066108882522
Created 1 atoms
  using lattice units in orthogonal box = (68.195723 16.754678 73.577203) to (114.37642 59.982022 122.39563)
  create_atoms CPU = 0.000 seconds
create_atoms 1 single 77.13218 24.9875 87.60996091690545
Created 1 atoms
  using lattice units in orthogonal box = (68.195723 16.754678 73.577203) to (114.37642 59.982022 122.39563)
  create_atoms CPU = 0.000 seconds
create_atoms 1 single 73.90598 28.2806 89.13431392550143
Created 1 atoms
  using lattice units in orthogonal box = (68.195723 16.754678 73.577203) to (114.37642 59.982022 122.39563)
  create_atoms CPU = 0.000 seconds
create_atoms 3 single 75.99672 27.4364 88.01173191977078
Created 1 atoms
  using lattice units in orthogonal box = (68.195723 16.754678 73.577203) to (114.37642 59.982022 122.39563)
  create_atoms CPU = 0.000 seconds
create_atoms 3 single 76.57224000000001 27.9242 91.12934234957021
Created 1 atoms
  using lattice units in orthogonal box = (68.195723 16.754678 73.577203) to (114.37642 59.982022 122.39563)
  create_atoms CPU = 0.000 seconds
create_atoms 2 single 78.49736 25.1478 90.82972813753581
Created 1 atoms
  using lattice units in orthogonal box = (68.195723 16.754678 73.577203) to (114.37642 59.982022 122.39563)
  create_atoms CPU = 0.000 seconds
create_atoms 1 single 78.71588 27.7161 89.85592481375359
Created 1 atoms
  using lattice units in orthogonal box = (68.195723 16.754678 73.577203) to (114.37642 59.982022 122.39563)
  create_atoms CPU = 0.000 seconds
create_atoms 1 single 75.67304 25.5586 89.79410510028654
Created 1 atoms
  using lattice units in orthogonal box = (68.195723 16.754678 73.577203) to (114.37642 59.982022 122.39563)
  create_atoms CPU = 0.000 seconds
create_atoms 1 single 79.31008 26.6962 87.0323293982808
Created 1 atoms
  using lattice units in orthogonal box = (68.195723 16.754678 73.577203) to (114.37642 59.982022 122.39563)
  create_atoms CPU = 0.000 seconds
create_atoms 1 single 80.21516 24.4049 89.35451094555874
Created 1 atoms
  using lattice units in orthogonal box = (68.195723 16.754678 73.577203) to (114.37642 59.982022 122.39563)
  create_atoms CPU = 0.000 seconds
create_atoms 2 single 82.607 25.1159 88.57073753581662
Created 1 atoms
  using lattice units in orthogonal box = (68.195723 16.754678 73.577203) to (114.37642 59.982022 122.39563)
  create_atoms CPU = 0.000 seconds
create_atoms 1 single 83.37270000000001 24.3133 91.60801661891118
Created 1 atoms
  using lattice units in orthogonal box = (68.195723 16.754678 73.577203) to (114.37642 59.982022 122.39563)
  create_atoms CPU = 0.000 seconds
create_atoms 1 single 81.78641999999999 27.061 90.1708511174785
Created 1 atoms
  using lattice units in orthogonal box = (68.195723 16.754678 73.577203) to (114.37642 59.982022 122.39563)
  create_atoms CPU = 0.000 seconds
create_atoms 1 single 82.21602 27.5635 87.10957547277938
Created 1 atoms
  using lattice units in orthogonal box = (68.195723 16.754678 73.577203) to (114.37642 59.982022 122.39563)
  create_atoms CPU = 0.000 seconds
create_atoms 2 single 81.1316 25.7353 92.23306991404013
Created 1 atoms
  using lattice units in orthogonal box = (68.195723 16.754678 73.577203) to (114.37642 59.982022 122.39563)
  create_atoms CPU = 0.000 seconds
create_atoms 1 single 85.516 24.8861 89.59287679083096
Created 1 atoms
  using lattice units in orthogonal box = (68.195723 16.754678 73.577203) to (114.37642 59.982022 122.39563)
  create_atoms CPU = 0.000 seconds
create_atoms 1 single 84.97008000000001 27.28 91.27629272206305
Created 1 atoms
  using lattice units in orthogonal box = (68.195723 16.754678 73.577203) to (114.37642 59.982022 122.39563)
  create_atoms CPU = 0.000 seconds
create_atoms 4 single 85.10106 26.8071 87.18225077363897
Created 1 atoms
  using lattice units in orthogonal box = (68.195723 16.754678 73.577203) to (114.37642 59.982022 122.39563)
  create_atoms CPU = 0.000 seconds
[...]
  create_atoms CPU = 0.000 seconds
create_atoms 1 single 108.4328 44.3799 115.32404699140402
Created 1 atoms
  using lattice units in orthogonal box = (68.195723 16.754678 73.577203) to (114.37642 59.982022 122.39563)
  create_atoms CPU = 0.000 seconds
create_atoms 1 single 96.648 48.5367 116.47588194842407
Created 1 atoms
  using lattice units in orthogonal box = (68.195723 16.754678 73.577203) to (114.37642 59.982022 122.39563)
  create_atoms CPU = 0.000 seconds
create_atoms 1 single 101.5605 49.2028 115.18578108882522
Created 1 atoms
  using lattice units in orthogonal box = (68.195723 16.754678 73.577203) to (114.37642 59.982022 122.39563)
  create_atoms CPU = 0.000 seconds
group surface id  1 2 3 4 5 6 7 8 9 10 11 12 13 14 15 16 19 20 21 22 23 24 25 26 31 33 34 35 38 40 42 44 46 47 48 49 50 51 52 53 57 58 60 66 67 69 72 74 75 78 79 80 81 82 83 84 85 87 88 91 93 94 95 97 99 100 101 102 103 104 105 106 107 108 109 110 111 112 113 115 116 118 119 121 126 127 129 130 131 132 133 134 136 137 158 162 164 165 167 170 171 172 173 174 175 176 179 210 213 214 215 216 217 248 251 255 256 257 258 259 261 262 266 286 291 292 293 294 295 296 297 299 300 304 305 307 308 310 311 313 314 316 317 318 320 322 323 324 325 326 327 328 329 330 331 332 333 335 336 337 338 340 341 342 343 345 346 347 348 350 352 354 381 382 383 384 387 388 389 390 431 432 433 435 436 437 483 484 485 487 488 489 491 529 530 531 532 533 534 538 539 541 576 577 578 581 583 584 585 586 615 616 618 619 620 621 622 623 625 626 629 630 632 633 634 635 636 637 638 639 640 641 643 644 645 649 651 652 654 657 660 661 663 664 665 666 667 668 671 673 702 707 708 709 710 711 712 713 762 763 766 767 769 771 813 816 817 818 820 864 865 868 871 875 876 877 878 922 923 924 925 926 927 929 930 962 963 964 965 966 967 968 970 971 973 976 977 979 981 983 987 988 989 990 991 992 993 994 995 996 997 1001 1002 1004 1006 1007 1008 1012 1013 1014 1016 1017 1019 1020 1021 1022 1023 1057 1058 1063 1064 1065 1067 1068 1108 1109 1111 1112 1114 1115 1117 1120 1165 1169 1170 1171 1172 1175 1217 1218 1221 1223 1224 1227 1270 1271 1273 1275 1276 1277 1280 1282 1316 1317 1318 1319 1320 1321 1322 1323 1325 1326 1331 1332 1333 1334 1335 1337 1340 1342 1343 1344 1345 1346 1347 1348 1349 1350 1351 1352 1353 1354 1357 1358 1359 1360 1362 1363 1364 1365 1366 1367 1368 1369 1370 1399 1400 1401 1404 1405 1406 1407 1408 1411 1452 1454 1455 1457 1458 1459 1460 1499 1500 1504 1505 1506 1507 1508 1510 1511 1512 1553 1555 1556 1557 1558 1560 1561 1562 1567 1568 1604 1605 1606 1607 1608 1609 1610 1612 1615 1637 1640 1641 1642 1643 1644 1645 1647 1648 1649 1650 1651 1652 1653 1654 1655 1656 1657 1658 1659 1660 1661 1662 1663 1664 1665 1667 1669 1670 1672 1673 1676 1682 1684 1685 1686 1687 1688 1690 1691 1692 1693 1694 1695 1696 1699 1720 1726 1727 1728 1729 1730 1731 1733 1766 1770 1771 1772 1773 1774 1775 1778 1811 1812 1813 1814 1815 1816 1817 1818 1819 1823 1825 1826 1846 1851 1852 1853 1854 1855 1857 1858 1860 1862 1863 1864 1865 1868 1869 1870 1871 1872 1873 1874 1875 1876 1877 1878 1879 1880 1881 1882 1883 1884 1885 1886 1887 1888 1891 1892 1893 1894 1897 1898 1899 1900 1901 1902 1903 1904 1906 1908 1911 1914 1915 1916 1917 1923 1924 1925 1928 1929 1930 1932 1933 1934 1935 1936 1937 1939 1940 1941 1946 1948 1949 1954 1956 1958 1961 1962 1964 1965 1966 1967 1970 1971 1972 1973 1974 1976 1978 1979 1980 1981 1982 1983 1984 1985 
618 atoms in group surface
            fix freeze surface setforce 0 0 0 
            minimize 0 1e-4 100000 100000
Neighbor list info ...
  update: every = 1 steps, delay = 0 steps, check = yes
  max neighbors/atom: 2000, page size: 100000
  master list distance cutoff = 9.1553683
  ghost atom cutoff = 9.1553683
  binsize = 4.5776842, bins = 11 10 11
  1 neighbor lists, perpetual/occasional/extra = 1 0 0
  (1) pair eam/alloy, perpetual
      attributes: half, newton on
      pair build: half/bin/atomonly/newton
      stencil: half/bin/3d
      bin: standard
Per MPI rank memory allocation (min/avg/max) = 4.075 | 4.363 | 4.467 Mbytes
   Step          Temp          E_pair         E_mol          TotEng         Press          Volume    
         0   0             -9944.7482      0             -9944.7482     -30349.279      74158.209    
       834   0             -10286.997      0             -10286.997     -44574.75       74158.209    
Loop time of 0.242998 on 192 procs for 834 steps with 1985 atoms

99.7% CPU use with 192 MPI tasks x 1 OpenMP threads

Minimization stats:
  Stopping criterion = linesearch alpha is zero
  Energy initial, next-to-last, final = 
     -9944.74819333916  -10286.9974617719  -10286.9974617719
  Force two-norm initial, final = 42.085258 0.011924618
  Force max component initial, final = 2.7794565 0.0034256006
  Final line search alpha, max atom move = 6.1035156e-05 2.0908207e-07
  Iterations, force evaluations = 834 1564

MPI task timing breakdown:
Section |  min time  |  avg time  |  max time  |%varavg| %total
---------------------------------------------------------------
Pair    | 0.074857   | 0.10117    | 0.14074    |   5.9 | 41.63
Neigh   | 2.2481e-05 | 0.00050953 | 0.0014446  |   0.0 |  0.21
Comm    | 0.012647   | 0.081845   | 0.10986    |   7.2 | 33.68
Output  | 0          | 0          | 0          |   0.0 |  0.00
Modify  | 7.4619e-05 | 0.00011496 | 0.00021317 |   0.0 |  0.05
Other   |            | 0.05936    |            |       | 24.43

Nlocal:        10.3385 ave          24 max           0 min
Histogram: 51 16 15 6 10 18 12 37 20 7
Nghost:        336.552 ave         766 max          29 min
Histogram: 16 23 30 31 31 22 9 14 4 12
Neighs:        619.057 ave        1871 max           0 min
Histogram: 68 16 15 15 18 13 14 19 10 4

Total # of neighbors = 118859
Ave neighs/atom = 59.878589
Neighbor list builds = 30
Dangerous builds = 0
            unfix freeze
            compute force all property/atom fx fy fz
            dump fcal all custom 1 dump.force id type x y z fx fy fz
            run 1 
WARNING: No fixes with time integration, atoms won't move (src/verlet.cpp:60)
Per MPI rank memory allocation (min/avg/max) = 2.95 | 3.238 | 3.342 Mbytes
   Step          Temp          E_pair         E_mol          TotEng         Press          Volume    
       834   0             -10286.997      0             -10286.997     -44574.75       74158.209    
       835   0             -10286.997      0             -10286.997     -44574.75       74158.209    
Loop time of 0.00156944 on 192 procs for 1 steps with 1985 atoms

Performance: 55.052 ns/day, 0.436 hours/ns, 637.172 timesteps/s, 1.265 Matom-step/s
99.5% CPU use with 192 MPI tasks x 1 OpenMP threads

MPI task timing breakdown:
Section |  min time  |  avg time  |  max time  |%varavg| %total
---------------------------------------------------------------
Pair    | 5.9188e-05 | 8.3845e-05 | 0.00013639 |   0.0 |  5.34
Neigh   | 0          | 0          | 0          |   0.0 |  0.00
Comm    | 9.432e-06  | 6.9779e-05 | 0.00010341 |   0.0 |  4.45
Output  | 0.00013696 | 0.00067025 | 0.0014485  |   0.0 | 42.71
Modify  | 1.4101e-07 | 2.7283e-07 | 5.7599e-07 |   0.0 |  0.02
Other   |            | 0.0007453  |            |       | 47.49

Nlocal:        10.3385 ave          24 max           0 min
Histogram: 51 16 15 7 9 17 13 39 18 7
Nghost:        335.969 ave         763 max          28 min
Histogram: 16 19 33 31 31 22 9 15 4 12
Neighs:        618.745 ave        1810 max           0 min
Histogram: 68 14 17 14 15 16 10 18 12 8

Total # of neighbors = 118799
Ave neighs/atom = 59.848363
Neighbor list builds = 0
Dangerous builds = 0
            
Total wall time: 0:00:00
                                                                                                                                                                                                                                                                                                                                                                                                                                                                                                                                                                                                                                                                                                                                                                                                                                                                                                                                                                                                                                                                                                                                                                                                                                                                                                                                                                                                                                                                                                                                                                                                                                                                                                                                                                                                                                                                                                                                                                                                                                                                                                                                                                                                                                                                                                                                                                                                                                                                                                                                                                                                                                                                                                                                                                                                                                                                                                                                                                                                                                                                                                                                                                                                                                                                                                                                                                                                                                                                                                                                                                                                                                                                                                                                                                                                                                                                                                                                                                                                                                                                                                                                                                                                                                                                                                                                                                                                                                                                                                                                                                                                                                                                                                                                                                                                                                                                                                                                                                                                                                                                                                                                                                                                                                                                                                                                                                                                                                                                                                                                                                                                                                                                                                                                                                                                                                                                                                                                                                                                                                                                                                                                                                                                                                                                                                                                                                                                                                                                                                                                                                                                                                                                                                                                                                                                                                                                                                                                                                                                                                                                                                                                                                                                                                                                                                                                                                                                                                                                                                                                                                                                                                                                                                                                                                                                                                                                                                                                                                                                                                                                                                                                                                                                                                                                                                                                                                                                                                                                                                                                                                                                                                                                                                                                                                                                                                                                                                                                                                                                                                                                                                                                                                                                                                                                                                                                                                                                                                                                                                                                                                                                                                                                                                                                                                                                                                                                                                                                                                                                                                                                                                                                                                                                                                                                                                                                                                                                                                                                                                                                                                                                                                                                                                                                                                                                                                                                                                                                                                                                                                                                                                                                                                                                                                                                                                                                                                                                                                                                                                                                                                                                                                                                                                                                                                                                                                                                                                                                                                                                                                                                                                                                                                                                                                                                                                                                                                                                                                                                                                                                                                                                                                                                                                                                                                      
Total wall time: 0:00:00
