ITEM: TIMESTEP
283
ITEM: NUMBER OF ATOMS
446
ITEM: BOX BOUNDS ss ss ss
9.3800025299999987e+01 1.1855277470000001e+02
4.2068424010000001e+01 6.4833675990000003e+01
9.6133195353902508e+01 1.2080587851675581e+02
ITEM: ATOMS id type x y z fx fy fz
1 1 99.2163 45.7627 98.4135 0.772901 -1.76063 0.354233
2 3 100.317 47.4435 96.9572 1.54321 0.0853581 -0.554
3 1 97.8663 47.7327 99.685 -1.72392 -0.727637 1.97609
4 1 101.66 44.7057 100.856 0.774675 -0.18112 1.26116
5 2 103.498 47.117 100.224 7.67243e-05 -1.53205e-05 -3.1866e-05
6 1 102.376 45.6451 98.3608 -0.364894 0.34513 -1.16156
7 1 105.035 46.7786 97.9209 1.05136 0.233206 0.834861
8 1 107.139 46.0938 100.706 -0.826695 0.992523 -0.0431228
9 3 104.526 44.8383 100.829 0.094508 0.240835 -0.762546
10 3 109.889 46.624 100.86 -0.0981704 -0.38772 -0.196056
11 2 95.3826 52.0478 100.152 -0.399727 0.557475 0.500267
12 1 95.7992 49.3027 100.977 -1.68382 -0.671736 -0.523615
13 1 100.823 47.9165 99.7637 7.46087e-05 1.85002e-05 -0.000441194
14 1 97.3975 50.676 99.2374 0.216676 0.270391 1.31975
15 1 98.5653 51.597 97.1676 0.349866 2.28921 -1.38836
16 2 99.6345 53.1201 99.2572 -0.000300555 -0.000313746 -7.85146e-05
17 2 99.0158 49.0386 98.031 0.371639 0.706402 -0.102306
18 2 102.143 52.7577 100.209 -0.000137578 0.00023055 -0.000221706
19 4 101.509 52.7271 97.5249 -0.339131 0.797738 0.306531
20 2 101.081 50.5622 98.6272 0.000197217 -0.000162679 0.000387967
21 1 100.296 50.0097 96.1361 2.85171 -1.02676 -1.71856
22 4 98.0301 52.7684 101.234 0.000327921 -6.60439e-05 0.000517455
23 1 104.213 51.3429 99.2732 -6.93233e-06 0.000546037 -0.000109759
24 3 102.833 51.144 96.4081 0.859246 -0.70608 0.102028
25 1 102.921 48.7843 98.0109 -0.785099 -0.190495 -0.363898
26 4 107.241 52.2018 97.246 0.247645 -0.203994 0.518052
27 3 106.875 50.5186 99.6442 -6.80094e-05 4.98985e-05 9.65596e-05
28 1 105.364 49.8558 97.1982 1.4281 -0.133928 -0.0526515
29 1 107.984 48.2521 98.652 -0.479505 0.199911 -0.320883
30 3 105.546 48.4601 100.011 0.000166196 -5.16812e-05 0.000304531
31 2 106.653 52.9433 99.8185 -0.000232769 -0.000327944 -1.78942e-05
32 1 104.57 53.3858 97.2133 -0.276312 0.304916 0.206516
33 1 111.282 48.8065 100.303 -0.275288 1.08645 0.931993
34 1 109.586 51.2125 99.5342 0.0320263 0.117614 -0.176251
35 3 112.175 52.2575 100.869 -0.651114 -0.145074 0.186819
36 1 96.8334 46.7015 102.545 0.269388 0.307398 0.847172
37 1 97.3072 47.1969 105.742 0.500748 -0.210051 0.384973
38 3 98.1735 44.8266 104.997 -1.11172 0.196847 0.652039
39 1 99.9623 43.5568 103.969 1.79211 -0.0482837 -0.490616
40 2 102.124 45.1276 103.727 0.000253476 -4.83279e-05 -6.20381e-05
41 1 99.9489 46.6489 104.521 -0.000146468 -0.000199582 -0.000328591
42 5 101.736 47.2234 102.304 0.000213189 4.81737e-07 0.000166881
43 1 98.9978 45.3519 101.499 0.777809 -0.306253 0.37652
44 1 103.156 42.9146 104.996 -0.793291 -1.24594 0.841621
45 1 104.519 46.7759 102.638 -0.000338864 -4.57397e-05 1.19594e-05
46 1 102.793 47.4143 105.115 0.000165779 0.000216484 0.000307323
47 1 104.899 45.2912 105.536 0.000299621 5.75944e-05 5.78208e-05
48 3 104.044 43.8734 102.99 1.15011 0.761325 -1.14835
49 1 106.205 42.5523 105.12 0.200392 0.684771 0.0112887
50 1 106.75 44.8269 103.355 0.758405 -0.249859 -0.505519
51 3 109.45 44.0495 103.912 -0.446724 0.382251 -0.197947
52 1 109.723 46.7099 103.548 -0.296686 -0.646334 0.0688994
53 1 107.872 46.219 105.869 -0.000222438 1.90384e-05 7.77305e-05
54 1 112.983 46.8335 105.579 0.0863364 0.70278 0.774982
55 2 110.906 45.4418 105.962 -8.42656e-05 -0.0164959 -0.25717
56 1 94.9648 48.597 103.478 0.0338618 -1.09682 1.64004
57 1 94.0678 50.7006 105.009 -1.31422 0.377394 2.85602
58 4 93.8029 53.3547 103.639 -0.239249 -0.0371801 0.383551
59 1 95.8122 51.4177 103.186 1.48583 0.823821 -1.80279
60 3 98.2297 48.8265 104.011 -0.000103815 -6.32075e-05 0.000501418
61 5 99.0844 51.7503 103.974 -0.000489608 -0.000237492 0.000411103
62 2 99.318 48.0304 102.01 0.000264858 -0.000432081 -0.000145775
63 4 98.034 50.1824 102.06 -0.000172276 0.00059015 1.51806e-05
64 4 103.789 52.06 105.054 0.000667307 0.000279499 -1.46462e-05
65 2 101.113 52.338 105.573 0.000191145 -0.000279054 2.41789e-05
66 1 101.053 49.6257 103.889 0.000536253 3.77379e-05 -0.000215096
67 1 102.045 52.3945 102.94 3.11481e-05 -0.000489279 0.000240332
68 1 100.355 50.8065 101.025 0.000209011 -0.000147451 3.69383e-05
69 4 104.288 49.6681 103.957 0.000486775 -0.000195759 0.000399602
70 5 105.197 54.2552 104.103 0.000117854 0.00071225 0.000209597
71 1 106.742 51.2133 104.535 -0.00015064 4.96362e-05 -0.000277428
72 3 105.278 48.0162 105.838 -1.44913e-06 2.8553e-05 -0.000194846
73 1 103.157 49.6265 101.309 1.53743e-05 -0.000147665 0.00027098
74 1 108.301 54.0333 105.727 -0.000130907 -0.000215334 0.00036364
75 1 108.275 51.6107 102.044 -0.000153074 -0.000162453 -0.000123103
76 1 105.063 52.3902 101.966 0.000218147 -0.0003275 -0.000250003
77 3 106.018 49.8886 101.93 6.6521e-05 0.000248322 -0.000130196
78 1 108.519 48.8121 101.361 -0.000281517 -0.000396283 0.000732117
79 1 109.418 49.5929 104.147 0.000182653 0.000305537 3.79269e-06
80 1 106.885 48.0132 103.673 0.000198417 0.000266739 0.000147922
81 1 111.828 51.0172 103.261 -0.000107549 0.000166077 -0.000325648
82 1 114.49 49.1699 104.806 0.230806 0.913892 -0.561114
83 5 113.463 51.7937 105.842 -5.32348e-05 0.000195785 0.000117551
84 2 109.902 51.8809 105.282 -0.000104318 0.000225108 -8.70126e-05
85 2 111.94 47.9169 102.927 0.548433 0.874989 0.165756
86 1 114.528 52.4249 103.352 -0.820038 0.564103 0.155041
87 3 113.798 49.9715 102.031 -0.0144093 -0.144519 0.125756
88 2 111.869 49.3427 105.398 0.000259979 -0.000584903 -0.00103132
89 2 97.4662 46.416 108.661 -0.387384 0.644974 0.287541
90 1 99.8004 45.7813 107.779 -0.266002 0.269204 -0.382487
91 4 99.8565 44.642 110.504 -0.0960757 0.00798203 0.0594723
92 5 100.051 43.0836 106.879 0.351143 0.289965 -0.339352
93 1 102.51 44.2422 109.545 0.145707 0.0132501 0.106133
94 5 102.107 44.9325 106.515 0.000322797 -0.000232174 -0.000213204
95 4 102.063 47.4052 107.902 -0.000468198 0.000464351 -6.77623e-06
96 4 104.43 45.7766 108.273 -0.000374287 0.000494529 -6.81227e-05
97 4 105.773 43.0081 107.843 -0.52802 -0.244943 0.101093
98 4 103.059 42.2808 107.733 -0.0677193 -0.0934445 -0.212607
99 1 105.798 43.6001 110.815 -0.973453 0.29913 0.247142
100 4 107.21 44.9818 108.311 -0.000281977 -0.000125212 -0.000280328
101 1 107.8 46.6877 110.586 -0.000339938 7.47285e-05 -0.000115988
102 4 108.395 42.0711 108.43 0.072664 0.0888568 0.520525
103 4 106.442 47.4989 108.034 -0.000129763 -0.000202856 0.000263363
104 3 108.249 43.9533 110.363 1.2428 0.299824 0.410904
105 1 110.924 43.5793 109.953 -1.43924 -1.1035 1.70127
106 5 109.99 45.8085 108.379 2.05354e-06 -0.000306544 0.000379066
107 2 113.243 46.7617 111.191 0.000439563 -0.000419823 -0.00020199
108 1 109.116 43.6858 106.434 -0.387451 -0.783539 0.426597
109 1 112.39 43.8106 107.946 1.32773 1.63609 -2.68325
110 2 114.086 44.5002 110.616 0.647697 -0.0221974 -2.30153
111 4 116.542 47.4722 110.386 -0.366971 0.186962 -0.368846
112 1 113.654 46.5787 108.652 -1.36495 -1.9432 -0.101687
113 3 115.491 47.6689 107.477 1.151 0.201583 -0.8684
114 1 95.6271 53.0116 106.707 0.388501 -0.903273 -0.898072
115 1 97.1048 50.4048 105.788 -0.00037291 -0.000504898 -6.20649e-05
116 1 96.698 48.9391 109.778 0.206127 0.0548355 0.128061
117 4 95.1569 48.2112 106.76 -0.700259 0.660554 0.474815
118 3 95.4667 50.7573 107.895 -0.179557 -0.57558 0.599647
119 1 96.1396 52.5405 110.143 0.33667 0.107555 -0.0874881
120 1 98.1216 51.1183 108.575 0.000372684 0.000147233 0.000162517
121 1 99.6558 48.5893 109.347 -1.40984e-05 -4.03928e-05 -0.000392803
122 2 98.5021 52.9269 106.643 0.000502225 0.000125044 0.000177073
123 1 104.098 51.4923 109.128 -0.000347164 -0.000214975 0.000171026
124 3 102.172 49.518 109.472 2.19911e-05 0.000488523 0.000183884
125 4 99.7604 49.1355 106.485 -3.09254e-05 0.000183732 0.000387468
126 1 100.981 51.6042 108.117 0.000110223 -0.000507616 0.000594364
127 1 105.702 52.9097 106.877 0.000338503 0.000572818 -0.000401988
128 2 104.253 48.4511 108.771 0.000844237 0.00047823 -0.000459814
129 1 102.929 49.9444 106.703 0.000421183 0.000240238 0.000581739
130 2 105.611 50.1301 107.115 -4.36959e-05 -0.000222569 -0.000243963
131 2 110.055 47.8242 106.084 -0.000157457 -0.000496104 -0.000233221
132 1 109.04 48.5409 108.505 0.000673915 -0.000291907 0.000112264
133 2 106.88 52.469 109.357 0.000117868 0.00101263 4.12179e-05
134 1 106.512 49.7467 109.804 0.000162449 7.06868e-05 -0.000109787
135 1 109.677 53.5248 108.496 0.000469596 0.000119769 0.000114129
136 1 108.113 51.2191 107.27 0.00109226 8.85582e-05 0.000769209
137 2 109.228 50.9785 109.774 0.000366905 -0.000162223 -0.000528029
138 3 111.581 47.9199 107.976 0.000315236 -0.000184342 0.000528199
139 1 110.998 50.6802 107.575 -0.000911558 0.000259659 0.000181742
140 3 107.67 48.9248 106.099 -0.000473202 0.000344775 0.000368666
141 2 114.067 48.695 110.131 -0.000135906 0.000498146 -0.000862445
142 5 115.954 50.2351 110.233 0.50171 0.397201 0.711283
143 1 116.688 50.0471 107.625 -0.102275 0.453202 -0.581727
144 3 112.366 52.8788 108.16 -0.00053741 0.00018154 -0.000559762
145 1 113.686 49.5019 107.592 0.000913623 -0.000731426 0.000268161
146 1 115.353 53.2536 110.284 0.000600103 0.000868833 0.00037089
147 3 114.844 51.9287 108.103 -4.95546e-05 -2.0568e-05 -0.00072069
148 1 113.113 51.2403 109.944 -0.000361748 -0.00135673 0.000702503
149 1 116.522 52.766 106.342 -0.634214 -0.0268419 -0.627125
150 1 118.014 52.1947 109.894 -0.51613 0.349825 -0.215955
151 1 98.8386 47.1009 111.64 0.511478 0.857683 0.242316
152 1 101.626 46.4648 113.867 0.394105 0.925391 -0.230235
153 1 103.024 44.4048 112.604 1.30184 0.121465 -0.35315
154 1 101.944 46.8418 110.771 -0.000304484 -1.77437e-05 -4.16757e-05
155 3 104.436 47.0198 113.587 9.92687e-06 3.93678e-05 0.000198368
156 3 105.954 44.2332 113.537 -0.241038 0.0890698 -1.15394
157 1 104.744 45.2239 115.484 -1.34007 0.347306 0.207842
158 1 104.917 46.3388 111.115 1.92485e-05 0.000121497 -6.78501e-05
159 1 107.059 46.5898 114.823 0.0900962 0.737605 0.286634
160 2 110.331 43.331 112.479 0.0247963 0.235989 0.477091
161 1 108.386 45.1703 113.011 0.96921 -1.45459 -1.19669
162 1 113.024 44.4172 112.744 0.122566 -0.117205 0.745067
163 3 111.365 45.3192 114.164 -1.57431 0.215724 0.780729
164 5 112.572 47.4253 113.493 -0.000302955 -6.94497e-05 8.87858e-05
165 1 110.762 46.0562 111.208 9.76008e-05 -0.000163718 -0.00033201
166 3 110.079 46.5303 115.77 0.483844 -0.238903 -0.796547
167 1 115.356 46.4337 112.721 -0.45725 0.00498061 0.327897
168 2 114.906 45.5264 115.261 0.124393 -0.232606 -0.642159
169 2 101.134 48.881 112.114 0.000198278 -0.000414603 -0.000117163
170 1 98.2836 50.671 112.18 -0.139232 -0.178623 -0.1092
171 2 100.606 53.3628 112.397 -0.000108059 -0.000433692 -0.000487099
172 1 100.447 49.031 114.57 -0.432301 0.685641 0.411534
173 1 99.1671 51.8641 115.01 0.725057 0.132261 -1.02455
174 1 101.89 51.606 114.037 -0.000410327 -0.000300841 -0.000121374
175 2 103.906 53.2328 115.29 -9.10059e-05 0.00010313 -6.56867e-05
176 1 103.946 49.1844 111.451 0.00026559 0.000110516 -0.000175978
177 2 103.204 51.7656 111.711 -0.000119036 -5.91708e-05 0.000362815
178 2 103.105 49.0833 113.928 -7.59204e-05 -7.28232e-05 -0.000149345
179 1 100.772 51.1327 110.991 0.000101171 0.000596678 0.000135202
180 1 105.007 51.2399 113.664 5.6043e-05 0.000264199 -0.000353697
181 1 107.579 51.5607 111.959 3.1526e-05 7.40141e-05 -0.00036895
182 4 106.608 48.6423 112.738 -5.94238e-05 0.000360576 -0.000389045
183 1 106.097 49.2394 115.601 -0.000914039 0.000567659 0.000246341
184 2 107.746 51.2021 114.667 -0.000169266 -0.000760871 -7.26189e-05
185 4 109.834 47.6079 113.238 -0.000195179 0.000206713 -0.000188444
186 1 110.204 50.4486 113.135 -0.000100038 -0.00059712 0.000450756
187 2 110.688 51.5675 115.748 0.00012919 -9.413e-05 0.000318561
188 4 108.967 48.9064 115.095 -9.34334e-05 -0.000171982 -0.000431181
189 3 112.685 50.6853 112.327 0.000633927 -0.000221879 -0.000979028
190 1 110.683 52.6404 111.167 4.68428e-05 0.000659129 0.00040581
191 1 111.393 48.918 110.592 0.000353282 0.00041188 -8.1861e-05
192 3 108.777 49.0748 111.28 -0.000592158 -0.000255731 0.000248854
193 3 111.984 52.278 113.949 -0.000264274 0.00146226 -6.56287e-09
194 1 112.93 49.8674 114.769 0.000133254 -0.000368077 0.000498625
195 1 115.798 48.2096 115.432 -0.430767 -1.07885 -1.01988
196 1 116.921 48.9659 113.081 0.646834 0.322166 -1.22271
197 3 117.741 50.9322 114.979 0.295242 -0.302638 -0.389594
198 2 113.247 53.1394 111.947 -0.000234149 0.000214184 0.000696998
199 1 115.286 51.269 115.543 0.954536 -0.312641 0.158549
200 2 114.37 49.0153 112.53 -0.000339433 7.99798e-05 0.000343018
201 3 118.089 51.2037 112.44 0.0737186 0.115995 -0.270829
202 1 115.399 51.5883 112.687 -0.000450773 1.6862e-05 0.000447079
203 3 106.355 47.1781 117.187 -0.392953 -0.0870362 0.735719
204 5 109.035 47.7497 117.549 -1.07387 0.483321 1.35236
205 2 103.721 47.7099 115.984 0.010772 -0.459846 -0.0720702
206 1 113.02 46.9527 116.254 -0.548102 0.151099 -0.214666
207 5 101.979 52.5196 116.984 -0.514917 0.711997 -0.351481
208 5 108.822 50.5839 117.104 0.000256354 0.000164025 0.000101834
209 2 106.841 49.7047 118.279 -0.697338 -0.0877557 0.285008
210 1 103.571 50.3605 116.322 -0.0828989 0.477161 0.273597
211 4 104.865 51.9582 118.876 -0.401129 0.0538418 0.0809697
212 1 106.195 52.2116 116.638 -0.000398296 -0.000623227 -9.38949e-05
213 1 108.854 52.0968 119.441 -1.01521 -0.102577 1.40558
214 1 113.709 50.6882 119.713 -0.596303 -0.0139936 0.417977
215 1 114.814 49.2872 117.679 -0.747717 -0.314814 0.317913
216 1 113.119 52.1637 117.046 0.000133885 -0.000359194 -0.000602791
217 1 112.03 52.6149 120.803 -2.03051 0.41031 -0.0708673
218 1 110.803 49.7438 119.731 -0.503703 0.300897 0.514263
219 3 111.009 51.8644 118.244 -0.000266534 5.90175e-05 -0.000158016
220 1 111.459 49.194 117.096 0.096195 0.417712 -0.174779
221 2 116.052 51.8657 118.479 0.133637 -0.368652 -0.84448
222 2 95.716 55.3678 99.2692 0.407646 0.266648 0.592056
223 1 96.6517 58.1142 99.2481 0.404199 0.0503335 -0.821389
224 1 98.6505 55.7886 98.8811 -0.255693 -0.858131 0.797187
225 4 99.1179 54.338 96.6378 0.38707 -0.163393 -0.572852
226 1 99.2795 58.7792 98.6615 0.746357 0.599591 1.41727
227 2 99.986 56.9269 97.021 0.880594 0.0958187 -0.812647
228 1 101.843 55.3759 99.2929 0.000257631 -0.000265253 1.19969e-05
229 2 100.649 57.2511 100.768 0.000257321 0.000172081 0.000177596
230 4 96.6727 53.4531 97.8282 -0.0764453 0.176237 0.50913
231 1 105.78 58.9801 99.6364 0.284246 -0.315917 0.10823
232 3 103.846 57.4492 100.795 -0.000274216 0.000451414 -0.000385634
233 1 104.758 56.3587 98.4437 -0.37558 -0.144034 -0.157445
234 2 104.331 54.0691 99.8026 -0.000621174 0.000372907 -0.000171805
235 1 102.366 58.3912 98.6755 0.111642 -0.196837 -0.0692639
236 1 102.06 55.2735 96.5283 0.912535 0.0622209 0.0603041
237 3 107.831 57.1754 99.9389 -0.0457104 0.14388 0.322437
238 1 107.408 55.0384 98.2829 -0.107755 -0.080247 0.103633
239 1 110.348 56.6065 99.6893 0.619608 -0.233255 0.0440082
240 2 110.429 53.8458 98.6333 -0.0587954 0.0112288 0.324268
241 1 108.862 54.2938 100.735 -0.000242412 1.20156e-05 -0.000367082
242 2 100.71 61.0958 98.5796 1.3646 -0.0213358 -0.564954
243 1 98.965 61.3303 100.391 -0.285947 -0.0380566 1.02091
244 1 101.813 62.8228 100.927 -0.541118 0.348839 1.01204
245 1 103.74 61.2166 99.6631 0.533856 -0.555349 -0.109014
246 3 94.7401 55.7261 103.429 -0.825037 0.79385 1.73447
247 1 95.8759 54.2691 101.876 0.537132 -0.510904 -1.60507
248 5 95.2878 58.2243 104.145 0.543827 0.123221 0.489944
249 1 95.3794 57.3053 101.462 -0.804083 0.0309163 0.83244
250 2 97.1577 55.8707 103.901 0.000364731 -0.000425495 0.000189034
251 1 98.2003 57.9663 104.935 -6.13138e-05 -0.000188167 0.000363201
252 4 96.9845 53.5445 104.465 0.000287473 -0.000236082 6.06262e-05
253 1 99.5943 54.543 104.647 7.41046e-05 -0.00115275 2.08257e-05
254 1 98.0625 56.4027 101.56 -0.000109801 -0.000282085 0.000195877
255 5 99.0484 58.9075 102.2 -0.000340562 -0.000550676 0.000119667
256 3 100.11 56.7591 103.459 -0.000320861 9.10326e-05 -0.000106207
257 1 102.333 57.9005 102.989 -0.000365685 0.000339512 0.000314399
258 1 102.477 54.9874 105.038 -0.000106327 4.94663e-05 6.56752e-05
259 1 100.228 54.4457 101.701 -0.000389723 -0.000183357 0.000285105
260 1 100.718 57.5769 107.021 7.92553e-05 0.000300431 -0.00013868
261 2 104.812 56.8506 103.298 0.000129666 -3.98569e-05 -0.000130068
262 1 105.733 58.7722 104.899 -8.40095e-05 0.00036545 -0.000343013
263 1 105.533 55.8597 106.407 0.000739412 0.000152837 -0.000277663
264 3 107.509 53.8407 103.082 0.000208983 0.000109603 0.000574418
265 1 103.126 55.1078 102.023 -3.39515e-06 -0.000279077 -5.0556e-05
266 1 107.423 56.3299 103.981 -0.000165327 -0.000273885 -0.000437353
267 1 106.108 55.5906 101.222 0.000317136 0.000123456 -0.000162414
268 2 107.025 58.2782 102.095 -2.21966e-05 5.3054e-05 -0.000124134
269 3 110.083 56.0648 105.173 -6.00636e-05 0.000678538 -0.000416413
270 5 111.367 58.439 104.932 9.49218e-05 -5.43906e-05 -0.00018119
271 1 109.992 56.5422 102.579 0.000364141 -0.000164403 -8.13981e-05
272 1 112.772 57.5384 102.593 0.240789 0.0192115 0.340163
273 3 112.325 55.3001 103.928 0.00018685 -0.000344755 -6.86921e-05
274 1 112.824 54.8286 101.482 -0.727779 -0.584735 -0.236913
275 1 114.918 55.4968 104.696 -0.427523 -0.320167 -0.145215
276 1 114.161 58.4516 105.62 1.38648 -0.426611 -0.468894
277 1 111.539 53.8775 105.943 0.000424738 -0.000823491 0.00097262
278 1 110.417 53.596 103.132 -0.000311699 0.000371829 0.000321571
279 3 96.8432 59.9522 101.255 -0.127814 -0.467995 0.535181
280 1 97.0257 60.5796 105.02 -1.44395 0.55634 0.0591809
281 3 100.41 63.7456 103.982 0.114603 -0.787862 0.257529
282 1 98.8486 61.4154 103.445 2.43468 1.93577 -1.81088
283 3 101.625 61.536 103.27 -0.000101557 4.24584e-05 0.000384354
284 1 100.647 59.6239 104.915 -0.000297088 -8.81496e-05 0.00015394
285 1 103.129 63.6245 103.982 -2.00368 0.908525 1.10507
286 2 103.342 60.2519 104.468 0.000203376 -0.000192775 -0.000487688
287 1 102.026 61.8634 106.301 -0.000591943 2.6768e-05 -0.000253004
288 3 98.674 59.5992 107.069 6.39798e-05 7.11197e-05 0.000193995
289 1 101.515 59.9019 101.122 0.000189202 -0.00076871 -0.000198889
290 1 108.741 59.0446 104.199 -0.000441974 0.000513983 0.00032076
291 4 106.186 64.6275 104.827 -0.334423 0.149828 0.226648
292 1 105.018 62.7851 102.33 1.24169 -1.02365 -1.09682
293 1 107.455 61.1209 101.641 0.158123 -0.423133 -0.628699
294 1 108.323 63.1676 103.829 0.249772 -1.01617 0.143615
295 2 106.974 60.9728 104.117 0.000155489 -0.000423189 -0.000497283
296 1 104.631 59.7878 102.224 -0.000259943 8.54896e-05 0.000364082
297 3 110.265 61.1266 103.549 -0.616649 0.16114 0.121214
298 3 112.404 60.073 103.147 -0.14983 -0.0998878 0.16547
299 1 109.74 59.2015 101.337 0.0599501 -0.149576 0.287323
300 4 113.137 61.3351 105.502 0.442122 -0.321666 -0.176817
301 1 95.9482 56.1 106.338 -0.330646 0.144976 -1.44614
302 2 94.6369 54.5891 108.307 -0.767565 0.681174 1.39375
303 1 99.0789 53.5043 110.156 3.18572e-05 -0.000250192 0.000373038
304 1 98.4017 57.4843 108.918 0.000212892 3.04428e-05 -0.000102975
305 3 96.5413 55.3355 110.898 0.612819 0.0523914 -0.311558
306 1 95.3676 57.1943 108.86 0.645338 -0.394844 1.68066
307 3 98.5447 56.0007 106.59 0.000670578 -0.000202472 9.59758e-05
308 5 97.3224 54.709 108.44 -0.000212159 -8.93106e-05 1.83487e-05
309 3 103.533 55.8877 110.754 5.99298e-05 -0.000179009 -0.000377326
310 3 104.836 54.2792 108.959 0.000327674 0.000221432 0.000789931
311 1 103.147 56.0973 108.054 -0.000767728 9.37576e-06 -0.000534961
312 1 102.186 53.785 110.1 -0.000333144 2.43461e-05 -5.83966e-05
313 2 100.968 56.3684 109.713 0.000167471 -0.000198167 0.00039077
314 1 105.846 56.6939 109.597 0.000103219 0.000372498 -0.000642394
315 4 103.217 57.6438 105.585 -0.000336006 -0.000242021 -0.000112737
316 2 103.023 53.3764 107.294 0.000393551 -0.000161291 -0.000239503
317 1 105.203 53.4522 111.385 0.000629621 4.04002e-05 0.000197181
318 1 100.49 54.5571 107.621 -0.000189606 3.81292e-05 -3.95464e-05
319 1 102.917 58.4439 109.899 0.000368866 -0.000529007 -0.000203877
320 3 108.52 56.5669 109.41 -0.000535113 -0.000131137 -0.000141516
321 1 107.93 54.4538 110.948 -0.00163074 0.00023455 7.57237e-05
322 4 107.736 59.0627 109.266 0.000141497 0.000433888 -9.58019e-05
323 4 108.139 57.0934 106.789 -1.38378e-05 8.94288e-05 -0.000160307
324 2 112.645 56.398 106.016 0.000520227 0.000449586 8.48621e-05
325 1 110.784 56.1902 107.85 0.000225834 -2.55317e-05 0.000991008
326 3 107.275 54.7523 108.222 7.14288e-05 0.000523638 0.000496273
327 1 113.064 57.564 110.978 -0.000184485 0.000675173 -0.00085237
328 2 115.134 58.4555 109.486 -0.00106883 0.000541064 0.000370414
329 3 115.181 55.9373 109.956 0.000586365 -0.000933076 0.00127851
330 2 113.46 56.9837 108.307 0.0002636 -7.04452e-05 0.000476325
331 1 112.713 54.7669 109.92 -0.000748791 0.000307762 -0.000403918
332 3 116.729 54.3322 108.451 0.80557 0.314721 0.148019
333 1 114.3 54.5612 107.363 -0.000388799 -0.000218967 0.000234901
334 1 116.314 56.9188 107.857 -0.391007 -0.255243 -1.02341
335 1 99.6238 63.0408 109.144 0.608256 -1.41856 0.190242
336 3 97.2279 61.8325 107.443 0.360738 -0.335899 0.77724
337 1 97.8201 60.4127 110.072 1.24922 -0.152067 -1.14554
338 1 96.0646 59.2699 107.125 -0.214133 -0.836661 1.32094
339 3 99.3724 61.9342 106.382 -0.102067 -0.730657 -0.437649
340 1 100.612 60.2284 108.652 -9.89805e-05 0.000154086 -0.000176664
341 1 103.725 59.766 107.281 0.000343007 -3.60574e-06 0.000163878
342 2 102.719 64.3653 109.437 -0.53135 0.617697 -0.350338
343 1 103.637 64.2113 107.092 0.998132 -0.111424 -0.688361
344 1 103.178 61.7492 109.546 4.26414e-05 -0.000204647 -0.000217328
345 1 100.574 64.214 106.761 0.351884 0.736259 -0.24933
346 1 105.571 63.7287 110.096 -1.01125 0.837989 -0.0811767
347 2 105.347 62.1208 107.987 0.000261804 2.57746e-05 -0.00095082
348 2 105.37 59.988 109.449 0.000550134 -7.75606e-05 -0.000166915
349 3 105.839 58.2838 107.536 -0.000133654 0.000591249 -5.50871e-06
350 2 108.762 60.6644 111.013 -3.52927e-05 -0.000268371 -0.00057104
351 1 107.873 62.2742 109.156 0.000513017 -0.000195681 0.00022506
352 5 106.728 64.831 107.827 0.0767763 -0.334661 -0.191121
353 1 105.097 62.0679 105.424 0.000100371 -0.000575327 0.000894571
354 1 107.268 60.53 106.797 -0.00049721 0.000330226 -0.000247081
355 1 109.95 64.3817 108.903 0.857821 -0.836385 -1.48596
356 1 110.758 61.4916 109.064 0.000306401 -0.000357286 0.00040007
357 4 109.725 59.2885 107.014 0.000662522 -0.00029855 -0.000201286
358 2 108.224 63.0558 106.578 -0.542031 0.257608 -0.201021
359 1 110.596 62.0383 106.213 -0.534139 -0.357567 -0.482447
360 3 108.317 64.6072 110.656 -1.29874 -0.21656 0.882482
361 1 115.987 60.7312 110.79 -0.0947889 -0.133187 -0.486102
362 2 115.5 60.2947 107.793 -0.110869 -0.681065 -0.101288
363 2 113.545 60.0467 109.919 0.000671434 -0.00029128 0.000425828
364 1 112.469 59.3614 107.637 -0.000362734 -0.000329608 0.000102131
365 1 113.627 62.0718 108.44 -0.320812 0.925588 -0.404301
366 1 100.803 54.5209 114.725 0.260788 0.27489 0.426009
367 2 99.8712 57.7005 113.82 0.00381604 0.218347 0.293131
368 1 99.4898 55.8896 111.867 0.000758833 1.31516e-05 -0.000402996
369 5 97.4573 58.0148 111.532 0.190747 -0.249839 0.285007
370 3 100.188 58.5124 110.931 -0.000235005 0.000162375 -0.000240994
371 3 102.075 56.8415 115.613 0.653288 0.0179203 -0.382835
372 2 98.07 53.5983 112.754 -0.0666984 -0.301467 0.0913671
373 3 104.343 55.7951 114.958 -0.000159411 0.000396553 0.000324736
374 1 106.376 54.0321 114.23 0.000328778 -0.000332794 -0.000384155
375 1 105.491 56.2938 112.499 0.000577924 -0.000912121 -0.000500458
376 1 102.232 57.1776 112.708 -0.000210869 0.000674263 0.00043827
377 5 103.072 54.3639 113.031 -0.000205438 0.000209595 0.000322637
378 2 108.996 55.8936 115.615 9.86048e-05 0.000164245 0.000376359
379 1 106.876 57.4773 114.832 0.000299431 0.000145815 -0.000161299
380 2 108.37 55.7279 113.241 0.000364601 0.000204212 0.000582598
381 2 106.139 58.6858 111.537 -0.000697065 0.000435724 -0.000813402
382 1 109.564 58.8056 115.47 2.88439e-05 -4.98679e-05 -2.46182e-05
383 1 110.965 56.8887 113.752 0.000244885 0.00123527 0.000164119
384 1 109.224 53.2566 113.953 0.00160203 0.000100246 0.000179496
385 5 110.413 55.8535 111.061 0.00093153 0.000552178 -0.000152909
386 1 108.698 58.118 112.144 0.00021956 -0.00104228 4.24263e-06
387 2 112.069 59.2375 114.002 -0.000403689 0.000251023 -0.000288626
388 1 113.474 56.4817 115.292 -0.00142082 0.000918382 0.00011571
389 1 114.052 53.701 114.374 -0.00110791 -0.000871473 -0.00041941
390 2 111.272 54.3899 113.015 -0.00117518 -0.00156923 0.000345599
391 1 110.503 58.4403 109.695 0.000476607 7.85624e-05 0.000480802
392 3 113.118 55.6319 112.643 -1.97723e-05 -0.000415475 0.000519302
393 1 117.078 53.6155 115.144 1.62838 -1.40399 0.314639
394 3 115.828 55.7551 114.86 0.0010696 -0.000227744 -0.000105763
395 3 114.561 57.541 113.086 0.00051764 -0.000134348 0.000202187
396 3 114.116 59.7266 112.372 -1.33103e-05 0.000182205 0.000113249
397 4 118.55 55.8361 114.05 0.279685 -0.0826399 -0.799946
398 1 116.729 57.9711 114.431 1.64439 1.0016 -0.236296
399 1 115.602 55.2186 112.415 8.40253e-05 -0.00013755 -0.000962539
400 1 116.826 57.818 111.416 -0.778716 0.484515 0.0774627
401 3 117.578 53.5154 112.759 -0.167415 -0.941229 -0.9822
402 1 118.023 55.2052 110.974 0.198887 -0.0446091 -1.83562
403 3 99.4377 60.0731 112.887 -1.38387 -1.28152 0.665009
404 1 101.139 61.0161 111.558 1.05806 0.594002 -0.736903
405 1 102.233 59.62 114.688 -0.24722 -0.649122 -0.326635
406 3 104.37 58.1484 114.112 -0.000205597 0.000648367 0.00024541
407 1 103.746 62.0571 114.054 0.697228 -0.0940337 -0.0621994
408 1 103.879 59.9202 112.202 0.000707416 0.000771516 -0.000100014
409 2 102.234 63.5422 111.529 0.243175 -0.782774 1.04022
410 2 105.124 63.9383 112.665 0.116124 -0.246736 0.501389
411 1 107.003 60.2651 113.707 8.65426e-05 0.000104011 0.00086796
412 4 106.114 61.4877 111.442 7.50686e-05 0.00032568 0.00012492
413 1 106.789 62.8314 115.242 -1.38349 -1.20837 1.41282
414 2 105.351 59.9557 115.596 -0.388209 0.783501 0.286459
415 1 111.733 60.1731 111.594 0.000114421 -0.000147826 0.000264163
416 1 110.591 62.931 111.713 0.492527 1.60689 -1.06145
417 1 109.83 60.8385 113.371 -0.0984806 -0.57787 1.22599
418 1 107.999 63.2562 112.985 0.19735 0.137355 -1.92177
419 1 113.096 62.0337 114.285 -0.359979 0.137919 -2.01171
420 3 109.329 61.5855 115.625 0.916133 1.1463 0.309713
421 1 115.8 61.0553 113.692 1.35156 0.996975 -0.762031
422 1 114.407 59.2653 115.132 -0.928576 -0.182782 0.97008
423 1 113.64 62.5792 111.389 0.12583 -0.65902 0.0393862
424 1 103.774 54.9362 117.46 -0.566802 -0.524892 -0.469826
425 1 104.623 57.8058 116.828 -0.330892 -0.77561 -0.00274155
426 1 106.535 55.2748 117.011 0.378202 0.618606 -0.40791
427 1 110.603 57.8603 120.304 -1.21607 -0.687199 0.092887
428 2 106.68 54.0028 119.377 0.153424 -0.205793 -0.292399
429 1 109.451 55.0242 119.584 -0.191522 -0.151559 0.456646
430 1 107.869 58.0064 117.717 -0.0202052 -0.56484 0.479408
431 1 108.96 53.5111 116.939 0.000248412 -0.000288856 0.000161874
432 1 114.34 53.6368 119.485 0.365143 0.0210914 0.702565
433 2 111.789 54.1987 118.475 -0.00023246 -0.000470178 0.000475228
434 1 112.779 55.5997 120.739 -1.32666 0.175589 0.0159827
435 1 110.69 56.6148 117.606 0.000446002 0.00091531 0.000331716
436 1 113.179 58.1278 119.504 -1.0646 -0.182819 1.52318
437 2 114.387 58.856 117.702 1.10004 1.29247 -2.06162
438 2 112.19 58.2641 116.501 2.88271e-05 -0.000434705 -0.00023485
439 2 113.504 56.0298 117.991 -0.558008 0.05875 -0.191804
440 1 111.494 54.3868 115.756 6.34565e-06 -0.00016703 -0.000998501
441 1 115.228 54.3657 116.983 0.029407 0.618829 0.742961
442 3 115.844 57.1514 116.924 -0.738662 -0.206615 -0.0633238
443 3 117.812 55.9697 116.464 -0.238819 -0.382667 -0.0462926
444 2 107.833 60.6655 116.986 -1.30028 -0.827735 0.415346
445 5 112.153 60.7036 116.294 0.420233 1.31585 -0.697014
446 1 110.681 59.8506 118.109 -1.91373 -1.1439 1.89651
ITEM: TIMESTEP
284
ITEM: NUMBER OF ATOMS
446
ITEM: BOX BOUNDS ss ss ss
9.3800025299999987e+01 1.1855277470000001e+02
4.2068424010000001e+01 6.4833675990000003e+01
9.6133195353902508e+01 1.2080587851675581e+02
ITEM: ATOMS id type x y z fx fy fz
1 1 99.2163 45.7627 98.4135 0.772901 -1.76063 0.354233
2 3 100.317 47.4435 96.9572 1.54321 0.0853581 -0.554
3 1 97.8663 47.7327 99.685 -1.72392 -0.727637 1.97609
4 1 101.66 44.7057 100.856 0.774675 -0.18112 1.26116
5 2 103.498 47.117 100.224 7.67243e-05 -1.53205e-05 -3.1866e-05
6 1 102.376 45.6451 98.3608 -0.364894 0.34513 -1.16156
7 1 105.035 46.7786 97.9209 1.05136 0.233206 0.834861
8 1 107.139 46.0938 100.706 -0.826695 0.992523 -0.0431228
9 3 104.526 44.8383 100.829 0.094508 0.240835 -0.762546
10 3 109.889 46.624 100.86 -0.0981704 -0.38772 -0.196056
11 2 95.3826 52.0478 100.152 -0.399727 0.557475 0.500267
12 1 95.7992 49.3027 100.977 -1.68382 -0.671736 -0.523615
13 1 100.823 47.9165 99.7637 7.46087e-05 1.85002e-05 -0.000441194
14 1 97.3975 50.676 99.2374 0.216676 0.270391 1.31975
15 1 98.5653 51.597 97.1676 0.349866 2.28921 -1.38836
16 2 99.6345 53.1201 99.2572 -0.000300555 -0.000313746 -7.85146e-05
17 2 99.0158 49.0386 98.031 0.371639 0.706402 -0.102306
18 2 102.143 52.7577 100.209 -0.000137578 0.00023055 -0.000221706
19 4 101.509 52.7271 97.5249 -0.339131 0.797738 0.306531
20 2 101.081 50.5622 98.6272 0.000197217 -0.000162679 0.000387967
21 1 100.296 50.0097 96.1361 2.85171 -1.02676 -1.71856
22 4 98.0301 52.7684 101.234 0.000327921 -6.60439e-05 0.000517455
23 1 104.213 51.3429 99.2732 -6.93233e-06 0.000546037 -0.000109759
24 3 102.833 51.144 96.4081 0.859246 -0.70608 0.102028
25 1 102.921 48.7843 98.0109 -0.785099 -0.190495 -0.363898
26 4 107.241 52.2018 97.246 0.247645 -0.203994 0.518052
27 3 106.875 50.5186 99.6442 -6.80094e-05 4.98985e-05 9.65596e-05
28 1 105.364 49.8558 97.1982 1.4281 -0.133928 -0.0526515
29 1 107.984 48.2521 98.652 -0.479505 0.199911 -0.320883
30 3 105.546 48.4601 100.011 0.000166196 -5.16812e-05 0.000304531