ITEM: TIMESTEP
462
ITEM: NUMBER OF ATOMS
1985
ITEM: BOX BOUNDS ss ss ss
7.0195722853999996e+01 1.1237641714600001e+02
1.8754678130000002e+01 5.7982021869999997e+01
6.6480601263449870e+01 1.0590473008325503e+02
ITEM: ATOMS id type x y z fx fy fz
107 1 75.4445 26.8078 74.8982 -1.02713 -1.04952 0.854281
347 1 73.906 28.2806 78.406 -0.918549 -0.307657 0.46568
666 1 75.2823 27.1114 84.2047 -0.543617 0.563302 1.05478
667 1 75.3679 26.1726 81.4958 -0.143877 -0.315922 2.64545
133 1 74.8693 32.2291 72.8303 -0.0697671 -0.678926 -0.382918
23 4 74.4292 36.0718 69.5927 0.459473 -0.150317 0.00564936
176 1 73.5362 37.1427 72.0311 1.26768 -0.93564 -1.19504
175 2 75.0017 34.8164 71.9392 1.70414 0.26008 -3.79164
131 5 71.6118 30.2144 76.227 -0.817365 -0.484012 0.546839
136 1 72.9139 32.2351 74.9645 0.525296 -0.745454 -0.697012
394 1 74.3591 31.7576 77.5818 0.000204343 -0.000221536 0.00019997
389 1 71.6424 33.1918 77.2158 -0.553723 -0.869684 0.594184
132 1 75.2224 29.3477 73.3422 0.93074 0.150766 -1.91853
134 1 74.2043 29.3183 75.7718 -0.0790337 0.13276 1.71607
390 1 72.1003 30.466 79.0417 -0.398128 0.0980146 0.106445
172 1 71.8268 37.0667 73.8978 -1.15126 -0.99371 1.37257
173 5 70.4896 38.0601 75.8506 -1.15884 0.557019 1.8972
174 1 73.606 34.632 73.7259 -2.46539 1.01164 0.41077
179 3 72.6618 35.1056 75.9196 0.110888 0.581812 -0.143408
177 2 74.5844 36.7105 75.2983 0.000292287 -0.000587156 3.84487e-05
436 1 72.2553 36.3087 78.0328 0.120584 0.777696 -2.20903
442 1 75.0024 37.2461 78.0903 -3.00525e-05 -0.000101149 -6.79447e-05
435 1 70.6984 34.4937 79.4371 -0.690499 0.266127 2.1363
439 2 74.1447 34.4803 78.0129 0.000227321 2.36938e-05 -0.000630462
440 1 75.4329 34.1654 75.7657 -0.00063667 0.000113715 -0.000608825
391 1 73.2215 33.0661 79.9898 -1.7164e-05 0.000146639 -0.000366168
714 2 74.4494 31.8129 82.0907 0.000343557 -0.000315106 0.00057057
710 4 72.8859 29.2354 83.7349 -0.18051 0.48672 1.32289
711 1 73.5441 28.6253 81.3015 -1.29144 -0.858824 -1.05886
712 4 71.8889 31.3171 81.7348 -0.374705 -0.148409 0.660028
713 1 73.8727 32.3409 84.5882 0.352086 -0.275856 0.0857843
398 2 74.7075 30.5894 80.0611 -0.000193646 -1.84786e-05 -0.000151914
772 1 75.1699 34.3654 82.5377 0.000354106 -0.000219891 0.000895606
437 3 71.0601 37.4333 79.7627 -1.06116 0.300818 1.22012
438 1 73.6632 35.9341 80.5342 -0.000942294 0.000235711 -0.000331656
766 2 72.5652 33.8862 82.3904 -0.432373 -0.0743413 -0.776632
767 1 72.2118 34.8053 84.6949 0.334231 0.0208985 0.694831
768 3 73.6253 36.4523 83.2072 2.0754e-05 -0.000343069 -9.37985e-05
769 1 70.9555 36.2359 82.0309 0.635222 -0.825073 1.01082
771 1 71.9966 37.8023 84.8379 -0.150959 0.0150165 0.214197
1118 1 74.5197 36.618 86.0514 9.6737e-05 -0.000190439 0.000112477
1065 4 73.8593 30.281 86.5974 0.278418 -0.0642304 0.226997
1115 3 72.2158 35.8968 87.0372 0.130711 0.185496 0.797341
1120 2 73.2851 38.1565 88.2659 0.064591 -1.2417 0.526756
1114 1 74.1139 33.6697 87.3082 -1.40398 0.235529 -0.173728
1117 1 74.6156 35.6392 89.559 0.892165 0.572015 -0.32806
48 4 71.9606 39.5491 70.888 0.11119 -0.127546 -0.323795
50 4 73.7128 41.527 69.3871 -0.132497 0.173083 -0.0734117
49 1 74.809 38.8895 70.5017 -0.0983319 0.565677 -0.736332
219 1 74.1746 41.1618 72.2129 6.43469e-05 -0.00042997 0.000217542
258 4 72.326 43.353 71.5639 -0.00619707 -0.132483 0.184602
80 1 75.1877 43.697 71.1547 -0.627605 0.337737 0.614134
259 2 73.2514 45.8356 72.2094 -0.618958 -0.457852 0.0287071
215 1 71.1409 41.0096 75.8708 -0.235441 0.0895276 2.14497
216 1 72.8803 42.625 74.4015 0.956367 0.573764 -0.619369
217 5 71.6886 39.9821 73.4827 0.312599 -0.450623 -0.550152
221 1 73.1858 38.7469 76.0887 0.000190468 0.000121901 0.000277224
488 1 72.3149 39.371 78.7191 0.142636 0.52425 0.0403929
489 1 72.1123 42.4357 78.5778 0.782759 -1.29079 -1.06208
218 2 74.2521 38.9884 73.7654 0.00051498 0.000193938 -0.000269769
493 5 74.1847 41.2739 76.8389 -9.79586e-05 0.000111869 -5.01446e-05
537 1 75.1774 43.0774 79.2535 0.000611269 -0.000302872 0.000270418
490 2 74.7707 40.3456 79.3186 0.000166072 -0.00021767 -0.000662058
541 3 74.5278 45.7843 77.8356 0.803676 0.782064 -2.18944
262 1 73.2261 45.644 74.8965 -0.608806 0.22277 0.548933
532 2 72.714 43.9338 76.7095 0.439828 0.322512 0.145757
538 1 73.6583 48.1148 76.5618 -1.30025 -0.620522 1.58721
539 1 74.2762 47.8294 79.5083 0.139942 0.330608 0.535711
261 1 74.6919 47.9439 73.9197 -0.950563 0.649588 -0.101432
533 5 72.8027 45.2488 79.1282 -1.03964 0.00373093 0.750557
491 1 71.81 41.2728 81.0431 0.066325 0.379377 0.994179
818 4 70.2003 39.0295 81.6757 -0.811868 0.147967 0.287875
819 1 72.9162 38.5802 81.7424 -0.000438613 -0.000429472 0.000106782
820 1 72.1738 40.6481 83.9861 0.0128488 0.599006 0.588007
823 4 74.6022 39.1126 84.1737 0.000328981 9.06842e-05 0.00049412
822 2 74.7151 41.6767 84.8089 -0.000719548 0.000103604 -0.000783975
821 1 74.6778 41.1609 82.0626 0.000186436 0.000198093 -3.90976e-05
877 3 74.7028 46.9647 84.178 0.854527 0.612768 -1.24425
874 1 75.1764 44.0836 83.8292 -0.000438898 0.00032206 -0.000248421
534 5 70.8469 44.0385 80.2668 -1.10921 0.243648 1.8911
873 2 73.6162 43.5366 81.14 -0.000223781 -1.61592e-05 0.00021065
875 1 72.2235 43.608 83.2516 -0.118525 -0.532831 1.29057
876 1 72.9371 46.0692 81.8511 -0.483363 0.824289 0.660579
878 1 73.8257 45.4726 85.8842 -0.496143 -0.198482 1.88722
1175 1 72.7552 42.8891 86.6294 0.481676 -0.790053 -0.38325
1171 1 74.1851 40.0678 86.9333 0.580506 0.530242 -0.741056
1172 1 74.5236 41.7206 89.3666 -0.0878062 0.223776 0.613029
1508 3 75.391 40.5967 91.8731 -1.02225 0.58124 0.96361
1224 1 74.7603 44.8587 89.152 -0.117725 -0.772008 0.233771
583 2 74.6051 50.6013 78.021 -0.0421236 -0.131245 0.862647
926 3 74.805 48.3287 82.137 0.0741196 -0.276788 0.363568
1 1 80.3283 27.9578 71.3401 1.02989 -0.435584 -0.415209
353 1 79.3665 26.7224 76.5839 0.0004486 -0.000128512 -0.00068092
108 3 77.564 25.184 74.5533 0.225045 -0.0635887 -0.335272
110 1 79.7382 26.4182 73.7986 0.262112 -0.385386 -0.371248
346 1 77.1322 24.9875 77.0651 2.46815 -1.30221 -2.47434
348 3 75.9967 27.4364 77.4185 1.01609 0.896445 -1.39025
111 1 80.3042 23.9642 75.8775 -0.67656 -0.556852 -0.886899
354 1 80.2152 24.4049 78.5997 1.93576 -0.52561 -1.5457
109 3 77.5403 27.7613 74.2501 1.04007 -0.141511 1.06889
352 1 75.673 25.5586 78.9864 -1.99763 -0.0918387 1.82625
351 1 78.155 27.8785 78.8276 -0.0010968 0.000855228 0.00134658
639 2 79.4775 21.9599 83.3108 0.126484 -0.286457 0.463606
328 1 80.2714 22.9583 81.0694 0.678721 -0.333977 0.354287
350 2 78.4974 25.1478 79.8974 -2.61306 2.12632 -0.123235
349 3 75.9239 28.2733 80.1502 0.000395849 -0.000206589 0.000166682
673 5 76.3312 24.3387 84.0184 -1.35872 -0.114157 2.08449
671 1 79.4552 23.842 85.1667 0.400001 -0.712829 -0.632203
668 1 77.8824 24.2003 82.0497 0.837358 -0.257156 0.290916
669 2 77.7366 26.4593 84.0875 -0.000793964 -0.000682346 0.000162653
670 1 78.139 27.2464 81.5939 -0.000207211 0.000694231 -0.000225955
672 1 80.2391 26.6835 84.2811 0.000743338 -0.000358268 0.000236341
359 2 80.3712 25.6994 81.6653 -6.27509e-05 0.00010367 4.68887e-05
992 2 80.2686 23.4508 88.309 0.278437 0.00960473 0.151447
1021 3 77.2196 27.4628 89.971 -0.478714 0.0429827 0.270487
1022 4 78.7536 25.115 89.3948 -0.577223 0.343328 0.562765
1023 1 78.3581 25.8596 86.6444 -0.766305 0.73729 1.11087
1370 1 79.9915 26.717 91.8238 0.0504013 -0.401359 0.145426
1020 1 76.1181 28.0565 87.0579 0.314192 -0.121684 -0.0178682
1026 1 79.3128 28.1869 88.8238 0.000368054 0.000825262 0.000243823
1027 3 80.698 27.0873 86.8475 -0.000760071 0.00045533 -0.000120178
7 3 76.768 31.3167 71.3153 -0.760732 0.340984 0.0868135
8 2 78.3268 30.2157 70.0737 1.44516 -0.179089 -1.5641
9 3 78.5895 33.0285 68.7592 0.779617 -0.991693 -0.617843
140 1 79.2975 32.368 71.2977 -0.000369959 0.000223088 -0.000225711
137 1 77.8071 28.7317 72.0862 -0.428181 0.108242 -0.660457
24 5 78.4738 35.6346 67.9349 1.69527 1.20938 -2.76883
25 1 77.4125 34.7897 69.9689 -2.65791 -0.194033 3.32976
26 2 76.5994 37.6213 69.196 -0.571436 -1.37391 0.650396
27 1 78.554 37.1804 71.1171 0.00118698 -0.0053061 0.00127892
181 5 77.192 33.7128 72.5102 0.00011148 -0.000763219 -0.000429769
182 3 79.0494 35.4541 72.9814 4.92556e-05 0.000242441 -0.0011364
29 1 80.5432 34.8485 70.7519 -0.000391586 0.000462112 -6.21696e-05
30 3 80.3427 36.8993 69.1289 -5.78139e-05 -6.64951e-05 0.000278324
400 3 80.156 29.1672 77.3326 -0.000827852 0.000318219 -1.5345e-05
402 1 79.6941 31.5245 76.0033 0.000717639 -0.000469118 0.000211116
395 1 77.2567 32.4832 77.4458 0.000675299 -0.00093185 -0.000339242
135 2 75.7889 31.5233 75.3152 0.000508585 -0.000225849 -0.000284429
139 1 77.8247 31.1101 73.7527 0.000360912 -0.000102308 0.000107718
393 2 76.1621 29.9418 78.3384 -0.000828509 0.000274445 0.000891122
392 1 77.4161 29.3818 76.1851 0.000436865 -0.000220307 -0.000417975
403 1 80.6128 32.1995 78.7593 1.99984e-05 0.00100715 -0.000433205
141 3 79.7389 28.8553 74.9193 0.000507874 0.000930851 -0.00018764
452 2 78.5777 30.5786 78.4595 -1.4864e-05 4.83286e-05 -0.000310612
138 1 80.6062 30.4666 73.108 0.000685787 -0.000550049 0.00136539
445 2 76.491 34.8754 78.3209 2.89186e-05 -0.000145017 0.000286821
443 2 78.2431 36.4635 78.8747 0.000126714 -0.000220601 -0.000796671
448 1 79.5434 34.5591 77.4749 -0.000675901 -0.000445782 0.000205175
178 1 77.3303 36.4869 76.3123 0.000130032 0.000353094 -0.000689031
180 1 78.2254 33.9373 74.9872 -9.79377e-05 -0.000387982 -0.000341187
184 1 78.7849 37.9998 74.2854 0.000864158 -0.000614078 0.000294629
185 3 80.2152 35.8203 75.126 4.36879e-05 2.29759e-05 -0.000392786
187 1 80.0838 37.7513 77.0064 8.28213e-06 3.55637e-05 -0.000621446
183 1 76.4165 36.4289 73.3561 0.000291522 -0.000360046 -4.96975e-05
730 1 79.9082 31.6743 81.5582 -0.000291069 0.000767078 0.000342514
396 1 77.5663 30.189 80.8108 0.000272327 -0.00131614 -0.00132059
397 1 76.1716 32.8346 80.1049 0.000738851 0.000160319 -0.000105237
720 2 80.0351 33.2244 83.7263 0.000128985 0.000123425 1.76857e-05
715 1 76.4383 30.6185 85.4045 -0.000280177 0.00074448 0.000432015
716 1 75.6155 29.6084 82.8262 -0.000739795 -0.00041306 -0.000123394
717 2 77.9431 28.9169 83.5889 9.32302e-05 -0.000593691 0.000379627
719 1 77.1949 32.223 82.9751 -2.40682e-05 0.000743055 0.000318407
721 4 77.9267 33.1721 85.563 9.28211e-05 0.000187657 -9.20959e-05
722 1 78.7532 28.8562 86.0512 0.000471266 6.45192e-06 0.00038116
723 3 79.2535 30.8257 84.1228 -0.00049046 6.93667e-05 0.000294368
399 2 80.2372 29.578 79.925 -8.46142e-05 -0.00061146 -0.000561239
724 1 80.4525 28.8891 82.4947 -0.000448112 9.09585e-05 0.000652467
1076 1 80.5956 31.9979 86.0352 0.000565143 -0.000483874 -0.000224935
778 2 80.5071 36.349 82.5618 0.000186961 -0.000227502 -0.00043043
777 2 78.9132 37.8494 84.0045 0.000770933 -3.12711e-05 -0.000131255
773 1 80.5251 35.4426 85.2247 -3.25618e-05 -0.000549205 -0.000274938
441 1 78.7777 34.1806 80.4513 -0.000231926 5.63734e-05 -5.13923e-05
776 1 78.4512 37.4568 81.3096 1.19803e-05 7.69402e-05 -0.000139079
775 1 76.2056 36.9938 83.606 -0.000111288 6.62183e-05 -0.000150751
774 1 78.2092 35.0442 83.2376 0.000100621 9.51399e-06 0.000672708
770 2 75.6856 34.3526 85.0823 1.87617e-05 0.000227335 -0.000164768
446 2 76.4453 35.7274 80.6241 -0.000175239 -0.000301951 -0.00115501
1123 1 77.8783 36.5065 86.1284 -0.00046338 0.000226932 -9.64063e-05
494 1 75.653 38.3178 80.9194 -0.000248031 -6.879e-05 -0.000385764
1066 3 76.1445 32.0837 87.4919 -8.23129e-05 -0.00092679 -0.000241882
1067 1 76.5393 30.101 89.2452 0.0544569 -0.470928 -0.410149
1068 1 76.7714 33.1304 89.8648 0.574033 -0.414681 -1.24294
1069 3 78.3812 31.1061 87.3518 -0.000738665 0.00122492 -0.00102074
1071 1 79.1372 31.2351 89.8415 -0.000321078 -0.000881448 0.000501257
1407 4 77.1317 29.7236 92.1269 -0.368462 0.4437 0.117293
1409 5 78.483 32.4145 92.4665 9.2096e-05 -0.000152051 -7.95583e-05
1410 3 79.2178 29.1128 91.333 0.000507362 0.00014475 -0.000459242
1413 3 80.6984 31.0747 92.0527 -0.000652252 -0.000630849 -2.81994e-05
1073 1 79.2952 33.8056 87.9281 1.48801e-06 -0.000391145 -0.00012912
829 2 79.8968 38.2665 86.2674 -8.49866e-05 -1.01824e-05 -0.00029683
1456 1 78.8681 35.3674 92.2343 -7.76754e-05 0.000625038 0.000415825
1461 3 78.491 37.9723 91.2853 0.000163298 -0.00013305 -0.00061199
1116 4 76.5495 34.6972 87.5102 -4.62334e-05 -0.000233744 -0.000280923
1459 3 76.4198 36.531 91.8818 -0.318533 0.253489 -0.128927
1457 2 76.2049 33.8818 92.0838 -0.252867 1.09357 1.50302
1119 1 77.7569 36.0669 89.5798 0.000636881 0.000489851 0.000738869
1121 3 79.7516 33.7758 90.4338 -0.00159295 0.000166525 -0.000705484
1122 2 79.9942 36.4278 88.0708 0.000201602 9.42705e-05 -0.000450772
1174 2 76.0701 37.7737 87.8108 -0.00030903 4.72248e-06 -0.000484114
1408 4 78.9252 31.1043 94.8753 -0.283198 0.406657 0.166821
1411 1 80.2268 28.9839 93.8298 -0.351763 -0.932555 -0.0382715
1460 4 77.4891 35.7236 94.3726 -0.188461 0.37085 0.734088
1730 2 79.5779 38.1306 96.5605 0.248751 0.12738 0.0276184
1458 4 79.845 33.7715 95.0627 -0.175122 -0.186536 -0.0333822
1462 1 80.6318 36.5443 94.6522 -0.000508655 0.000181418 -0.000328239
51 1 78.4847 38.682 68.0658 0.423803 -0.0145063 -0.380794
52 1 76.3966 40.5321 68.9574 0.153867 1.57952 -0.995717
53 1 78.2671 42.79 68.3224 0.00992727 0.909203 0.546245
54 1 79.375 41.6871 70.7489 -0.00565686 -0.00983781 0.000854321
56 3 78.0875 39.5583 70.5214 0.00164767 0.00703057 0.000148952
222 3 76.7965 41.6518 71.4159 0.00164862 -0.000622988 -8.14329e-05
58 2 79.8361 40.9001 67.6369 0.824263 0.185097 0.249612
230 2 79.8491 39.356 72.2589 -0.000286224 0.00119903 -0.000900901
225 1 76.6471 39.2627 72.6695 -0.000893078 0.000486634 0.000845466
55 1 78.1076 43.8971 72.4629 -0.00172052 0.000890151 0.00104167
257 1 75.6238 46.6588 71.6445 0.0373937 1.39624 -0.203151
81 3 75.8016 43.3492 68.8539 0.312856 -0.131753 -1.12655
82 1 77.5956 45.5629 70.2794 -0.987878 -1.01724 1.60548
83 5 79.0409 45.7224 68.4054 2.69309 0.653436 -3.61639
84 5 79.5214 47.9968 70.0897 -0.592116 -0.377063 -0.620367
86 2 80.0232 44.1449 70.571 0.00222874 0.00571243 -0.00112738
266 2 78.3982 47.6133 72.1407 -0.900365 -1.47218 0.760931
263 2 80.1907 45.9869 72.3012 0.000320567 0.000181193 -0.000594387
498 4 79.7077 41.6763 78.9558 -0.000150155 -1.773e-05 -0.00036766
224 1 78.5644 41.2109 73.6717 -0.000347506 -0.000276931 -0.00112965
227 4 78.7415 40.1219 76.3237 -4.51934e-05 -0.000712092 -0.000684484
444 1 77.3504 38.9067 78.4853 -6.80583e-05 0.000369497 0.000770815
492 5 76.1184 39.1338 75.7381 -0.000101257 -0.000278408 -4.28515e-05
495 5 77.0379 41.6584 77.6564 2.8385e-05 0.000331045 -0.00117316
228 4 80.0752 42.2072 75.9044 -0.000421573 0.000455792 0.000791059
220 4 75.8325 41.6788 74.5089 -0.000509711 -4.13256e-05 -0.000235664
500 4 80.043 39.1061 79.5937 -0.000280341 -2.03205e-05 -0.00050066
540 1 76.7428 45.6928 78.9291 0.000492255 0.000197233 -6.74252e-05
223 2 77.8943 43.5715 75.1351 -0.000122805 7.18711e-05 -0.000214533
268 4 80.3406 44.826 75.4237 -9.57085e-05 -1.95218e-05 -2.5946e-05
267 4 80.487 47.454 75.5519 0.00064641 6.52711e-05 0.000676905
545 1 78.7483 44.0997 77.6289 -4.02791e-05 -3.20283e-05 0.000448215
544 2 78.6272 46.7042 77.1849 0.000288984 -0.000405679 2.30699e-05
542 1 76.2768 46.771 76.0367 0.000486371 -0.000244794 2.16682e-05
264 4 78.3135 46.2522 74.2457 0.000340351 -0.000106245 0.000270348
260 1 75.6473 44.6484 73.7989 0.000173723 0.0002882 -0.000573957
535 1 75.5532 43.8346 76.5112 -0.000505529 4.78296e-05 0.000448751
496 1 77.4905 40.8829 80.704 -3.80378e-05 -0.000145914 -1.59074e-05
502 1 80.0339 42.1653 81.9831 -0.00100376 0.000275782 0.000143978
824 1 77.0678 39.4416 85.7602 0.000280408 0.000247769 -0.000388463
825 2 77.2756 39.3675 82.9307 -0.000194686 0.000265974 -0.00040625
826 3 76.3388 43.1417 81.6706 0.00035486 0.000323575 1.46794e-05
827 1 77.389 41.8241 83.7247 -0.000364817 -0.000518187 0.000771935
828 3 79.8436 39.5158 82.2269 0.000129386 -0.000363505 -0.000618213
830 1 79.9671 40.583 84.6778 -0.000582475 -0.000168238 -2.13717e-05
886 4 79.761 45.9959 84.9243 0.000990716 -7.49959e-05 -4.55201e-06
547 5 79.1527 46.5759 79.8829 0.000106233 -7.45283e-05 0.000651661
887 3 79.8169 43.3874 84.4024 -0.00068493 -0.000709707 1.16867e-05
885 1 80.256 47.2684 82.4932 0.000144673 0.000531595 5.65376e-05
879 1 75.6695 45.6865 81.5125 -1.93047e-05 -0.000449605 -0.000192518
884 1 77.3323 47.5537 83.3335 0.000343768 7.70259e-05 -0.000179793
883 3 76.9372 47.8204 80.7664 -0.000101593 -0.000143156 -0.000595437
882 2 77.6122 43.9918 85.0645 -0.000285445 0.00028435 0.000447328
880 1 78.4238 44.7946 82.4827 0.000513385 0.000163264 0.000802896
1229 1 76.8376 46.1899 85.9529 -0.000173201 0.000435583 -0.000230936
536 2 78.0663 43.55 80.0992 -0.000593078 0.000602097 0.000163729
1170 1 75.9567 38.7777 90.2089 -0.21218 -0.824893 -0.00240608
1173 3 76.6291 40.6478 88.3006 0.000138375 -0.000481953 -0.000348232
1176 3 77.0071 42.9076 89.4721 0.000263105 -0.000463761 0.000263288
1177 1 78.3968 41.9586 86.8086 -0.000180179 -0.000225498 0.000585973
1179 1 78.552 38.8559 88.5654 0.000416631 -0.000358147 0.000168703
1180 1 80.338 39.7234 90.7815 0.00194626 -0.000986916 -0.00129331
1181 1 79.6084 42.3045 89.4561 0.000812276 0.000799659 0.000705585
1509 1 77.7892 40.9855 91.3617 -0.000786822 0.000228252 0.000478561
1225 1 75.7409 43.1279 86.8992 2.61854e-05 -0.000287877 -0.000254055
1563 1 80.7169 45.1432 92.2341 -0.000101943 1.08533e-05 -0.00074041
1559 2 78.696 43.3995 92.5578 0.000276801 -0.000153042 0.000291693
1234 1 79.4901 45.2283 89.6072 -0.000122898 -3.70802e-05 -0.000540633
1561 1 77.6384 45.7883 91.7144 -0.401982 -0.259255 -0.0121298
1558 1 75.7884 43.3887 91.8239 0.690573 -0.21479 -0.261647
1226 3 77.2234 45.0024 88.3246 0.000507526 -0.000498108 -0.000829663
1227 1 75.8169 47.4049 88.3194 0.0560107 0.399305 0.814567
1228 2 79.2545 44.6003 86.985 -2.08636e-05 0.000288224 7.97304e-05
1231 2 78.458 47.3058 88.2591 -0.000279289 0.000275905 9.66483e-05
1507 1 77.3798 38.7904 93.4976 0.248691 0.245515 -0.29846
1510 5 77.0125 41.7949 94.2028 0.660471 -0.0334023 -0.755494
1512 2 79.3795 40.5358 94.9131 -0.151753 0.0386457 0.91311
1511 1 79.7803 43.1898 95.9281 -0.610383 0.154213 -0.11149
1774 5 80.5317 40.8216 97.7169 -0.118863 0.08736 0.38908
1515 3 80.022 38.823 93.356 -0.000157329 0.000711328 0.000239956
1513 3 79.9787 41.3829 92.8173 0.000688151 -0.00016765 0.000480108
1560 2 77.0632 44.5566 94.3138 0.617566 -0.206623 -0.380448
1562 1 79.5329 45.9198 94.7401 0.188119 -1.32088 0.473289
1567 4 80.4872 47.7911 93.0967 -0.0606085 1.1956 0.403274
297 1 78.7864 50.2338 71.5379 1.67527 2.18901 -2.1528
295 3 75.4739 49.6836 76.0106 1.67067 0.107513 -0.79989
296 4 76.6843 51.6698 74.7956 -0.832494 0.582854 0.238771
299 1 76.8956 49.4007 73.0695 -1.96081 -0.0463726 1.6221
300 1 79.2866 51.6468 74.1003 -0.836505 0.363878 1.34403
585 1 77.258 51.5207 77.6419 -0.0757656 -0.226173 -1.18356
588 5 79.765 48.7926 78.1591 0.000173501 0.000347908 4.26652e-05
590 1 80.1051 51.5465 77.3484 0.000194487 0.000228999 -0.000108066
582 1 76.8493 48.7364 78.3391 -0.000333779 0.000396672 -0.000223349
301 1 78.2879 49.235 75.6775 7.26874e-05 0.000194181 0.000122998
303 1 80.5071 48.8266 73.3076 -0.000131494 0.000474201 -6.44459e-05
325 3 79.3008 53.8008 75.9226 0.194916 -0.642803 0.342059
619 2 78.9804 53.6416 78.6427 -0.382903 0.243397 -0.00325183
584 4 76.2669 52.862 79.6232 -0.228316 0.715383 0.847244
586 1 75.9821 50.3179 80.9243 0.554538 -0.155777 -0.127693
587 5 78.5875 51.3143 80.1566 0.00046935 0.000598055 -5.94909e-05
928 1 79.4926 50.024 83.1365 0.000113087 -9.48748e-05 -0.000494983
929 1 76.706 50.315 83.9856 -0.737448 -0.319485 0.252876
930 2 77.9648 52.0966 82.698 -0.0865143 0.464817 -0.14173
931 1 80.5608 51.1021 85.7206 0.000479698 0.000234769 0.000477233
927 2 75.8855 48.7291 85.9708 -0.488557 0.0753183 0.01828
1278 1 78.6071 48.7543 85.9668 2.91746e-07 0.000265216 -0.000308547
543 2 79.0654 48.9594 80.7519 -0.000597208 -0.000334248 0.00056142
968 4 79.3338 53.9744 84.4665 -0.129255 -0.490234 0.133714
967 1 79.0192 53.9899 81.3727 -1.84773 -0.36779 0.862091
1277 1 77.5592 50.0133 88.5482 -0.583938 -0.911277 0.684033
1280 2 78.1763 51.6763 86.7644 0.197161 0.571922 -0.860209
1279 1 80.3676 49.5501 88.5178 0.000271563 0.000304805 0.000107093
1282 1 80.0215 52.1316 89.6047 -0.0852587 -0.561032 1.14695
1608 3 80.4853 50.2267 91.7793 0.274973 -0.136257 -0.703344
1276 2 78.2469 48.2725 90.6819 -0.10048 0.0497766 -0.335838
1321 5 80.3327 53.5679 87.3361 0.246597 0.514645 -0.663619
2 1 83.2329 27.4168 70.817 0.379573 1.20226 0.129078
3 1 85.7646 28.0728 69.833 0.30515 0.186518 -1.08729
113 1 82.1029 25.5922 72.4102 0.127729 -1.32196 0.687306
329 1 81.9576 22.0105 78.8123 -1.50659 -1.22513 2.94757
331 1 83.5537 22.7206 77.0504 2.63561 1.0273 -2.35382
362 4 85.3128 26.7619 76.789 0.000914569 0.000486194 -0.000470431
358 1 82.2119 27.5292 76.5968 0.000235913 -0.00108313 -0.00035333
115 4 84.8307 24.0573 73.5695 0.130411 -0.137353 0.118768
116 1 82.7603 25.1262 75.2345 0.67944 -0.694929 -0.0691377
117 1 84.326 27.3268 74.1794 -0.000401831 -0.000836541 0.00049027
355 2 82.6634 25.2035 77.9546 1.17916e-05 -0.000225479 0.000218308
112 2 85.5527 24.263 76.3236 -0.368753 0.296315 -0.489072
360 1 85.2453 24.8156 78.8131 -0.000506318 0.000308522 -0.000252589
114 3 81.8582 28.0811 73.6907 0.000278826 0.000440248 0.000124448
361 1 83.9557 27.4294 79.3757 0.000249103 0.00029508 -0.000209284
357 1 81.0329 27.1284 79.5162 -5.28639e-05 0.000245563 1.58736e-05
330 5 84.1938 20.2186 80.6348 0.808742 -0.634707 -0.5117
332 3 84.8641 22.4964 79.7574 -1.42958 -0.250273 0.302109
640 1 82.3535 21.8927 84.0535 0.4748 -1.01279 0.735081
641 2 82.8669 21.9024 81.6712 -0.514615 1.20098 -1.17596
642 1 85.7751 22.2512 85.1845 -0.000889809 0.00121052 9.22774e-05
643 4 84.6598 20.1688 83.737 0.155367 -0.586353 -1.57723
646 1 85.4377 22.7971 82.3072 0.000118912 0.0004251 -0.000337448
682 3 85.5168 27.0411 83.9095 -0.000722614 0.000130225 -0.00012088
356 1 82.8655 24.4613 80.5951 -0.000846303 4.6669e-05 -0.000347069
676 4 82.8796 26.6914 85.2923 -1.62237e-05 -4.99937e-05 0.000144878
683 5 85.3683 25.6056 81.6478 0.000124992 -3.83264e-05 0.000151654
677 1 82.9927 27.0745 82.356 -0.000191442 -9.58039e-05 0.000238939
408 1 86.0001 28.4528 81.3796 0.000829376 -0.000988834 0.000877986
674 1 81.9183 24.491 83.4907 -0.000510807 0.000820376 0.000243209
675 3 84.4845 24.6645 84.0136 -7.98014e-05 -0.000144616 -0.000110757
991 2 82.4356 21.4297 90.6941 0.123145 0.868584 0.975075
993 1 81.6585 21.8982 86.6589 -0.14841 -0.0727257 1.53886
994 1 84.085 20.0383 86.3199 0.838238 0.299358 -1.10321
997 1 83.1883 20.0589 88.7404 0.0505846 0.355277 1.36891
998 3 85.1973 21.7939 88.0995 -0.000835265 -0.000115774 -0.00058565
1000 1 83.3102 23.4345 88.9973 -3.89349e-05 0.000237 2.05282e-05
1347 1 84.709 22.8042 92.7488 -0.0814127 -0.811753 -0.152805
996 1 85.6786 20.954 90.9205 0.0664617 0.661144 0.292383
679 2 83.7364 23.5555 86.2147 0.000300425 0.000449544 0.000166059
1374 3 84.1612 25.0353 91.579 -0.000814274 0.00133012 0.000247235
1024 2 81.6253 24.7999 86.5705 -0.000190445 -0.000291804 4.37697e-05
1025 1 81.4424 25.9122 89.1574 -0.000575952 -0.000184312 0.000597157
1075 1 82.7528 28.3598 87.8654 7.84286e-05 0.000456166 -0.000200345
1030 2 84.3052 28.5352 91.0131 0.000175092 -0.000165808 -0.000303323
1031 1 84.3912 26.3359 89.2191 0.000592161 -0.000212096 0.000138816
1367 1 81.722 24.035 91.55 0.195083 0.389971 0.169085
1371 2 82.5805 26.7525 91.5026 0.000836814 -0.000492442 -0.000487534
678 4 84.9295 26.064 86.385 -0.000258833 3.32709e-05 -0.000150976
1368 2 83.481 24.3411 94.3193 0.110695 0.881618 0.27154
1369 1 81.9816 26.4738 94.7116 0.145486 1.25929 -1.00252
1662 1 85.05 27.117 96.2641 -0.134471 -0.0864933 0.0794679
1375 1 84.574 27.0513 93.3734 0.000706739 -0.000978949 -0.000527881
10 3 80.9633 30.3521 70.6421 -0.173853 -0.416792 -0.486001
11 1 83.4682 30.2683 70.0483 -1.17578 0.141385 2.74421
12 1 81.1159 32.1646 68.8791 0.611285 0.105273 -0.0390959
13 3 84.31 29.8351 67.9468 1.45203 -0.868799 -2.28013
14 1 84.3224 32.4499 68.5426 0.425046 0.699424 -1.04028
144 1 83.6195 30.2077 72.9659 -0.000324625 -8.16231e-05 -0.000577907
145 2 82.3427 32.3318 71.5901 0.000188847 0.000678824 0.000356852
146 1 85.3551 33.1638 71.1684 -0.000482025 -0.00020229 0.000149731
17 2 85.9034 30.644 71.0185 -0.000377389 5.898e-05 -0.000616268
151 2 85.6071 28.6657 72.3733 0.000272577 -0.000440315 -4.28372e-05
188 3 82.8283 35.1277 72.3173 -0.000495208 -4.77169e-05 4.89649e-05
34 1 85.233 35.3785 68.9261 -0.792224 -0.0355936 0.100174
28 2 83.098 34.1475 70.179 6.5812e-05 -0.000417354 0.000149412
190 1 81.2281 37.0978 72.8706 -0.000631628 -0.000485152 -2.05505e-05
189 1 85.3088 36.0664 71.9243 0.000275395 1.54327e-05 0.000596799
31 1 81.7863 34.8223 67.9914 -0.617493 -0.107361 0.193367
32 1 82.831 36.9207 70.1485 0.000280911 -0.000376428 -0.000165826
33 4 82.9813 36.7337 66.7057 0.702774 -0.124836 -0.66345
35 4 85.7305 37.7225 67.1492 0.845003 -0.342084 -0.525027
37 4 85.7489 38.2359 69.6932 -0.000177035 0.000494408 0.000145716
231 4 83.7083 38.3109 72.5661 -0.000262563 0.000406499 -3.98737e-06
143 1 82.1957 30.1999 75.5 -0.000912093 1.48502e-05 -0.00165717
460 1 84.4662 32.157 78.0798 -5.01866e-05 -0.000543014 0.00108741
405 2 84.5109 31.3308 75.498 0.000572806 0.000395136 0.000360242
147 2 84.5368 29.1563 76.5535 0.000583313 -0.000259175 0.000487234
148 1 83.9533 33.2658 73.7411 0.000198266 8.94486e-05 0.00083641
401 1 82.4763 29.9157 78.3708 0.000389379 0.00100854 0.00110449
456 2 85.7014 33.4545 75.9943 0.000127083 -0.000297458 -6.97314e-05
454 1 82.3033 33.1971 76.3301 -0.000470424 0.000100279 -5.45501e-05
192 3 85.8087 38.2504 74.4426 -0.000755029 -0.000203105 -0.000414862
457 1 84.2684 35.4129 77.3608 0.000200216 0.000425312 0.000356513
449 2 82.5305 34.0829 79.0347 -0.000509037 0.000687808 -0.000111781
447 3 81.7915 35.7851 77.0627 0.000146394 -0.000222527 -5.53248e-06
186 3 82.5906 35.3603 74.7463 -0.00015536 -0.000287681 -4.43896e-05
451 4 82.6802 37.9844 78.3061 -0.000149265 8.27361e-05 -0.000169184
193 1 83.0643 37.8128 75.4014 6.43606e-05 -3.33147e-05 0.000211413
462 4 85.8724 34.3069 79.2571 -0.000204548 0.000145742 -0.000445294
191 5 85.2031 35.7375 74.7259 -0.00025338 0.000472299 1.90724e-05
458 4 85.5899 37.8924 77.0746 0.000305714 -0.000262644 -0.000851584
142 1 80.8944 33.534 73.6315 5.05765e-05 -5.95212e-07 -1.86512e-05
732 4 84.8208 32.3928 84.5751 -0.000620467 0.000995672 3.36737e-05
409 3 84.6553 30.1119 79.7447 -0.000783395 0.000969896 -0.000676322
725 2 82.6493 29.3614 81.0712 0.000159171 0.000657899 0.000168382
726 5 82.7975 31.8933 80.5263 0.00106172 -0.000737609 0.000341215
727 4 83.8462 29.0472 84.3774 -0.000452398 0.000143426 0.00011848
728 1 82.1086 31.3176 83.4591 -0.000239942 0.000747635 5.30577e-05
729 1 84.7266 30.7965 82.2708 -0.000715307 0.00146219 -0.000277112
718 5 81.3931 29.2556 85.3616 -6.57977e-05 -2.00147e-05 -0.000429435
731 2 82.5581 33.7255 84.5121 0.000159508 -0.000159521 -0.000104184
1131 1 84.5375 35.0894 85.9814 0.000230369 -9.48722e-05 0.000396473
780 4 82.0687 38.1286 81.3239 -0.000229236 0.000245661 -8.44257e-05
782 1 84.6387 33.7268 81.8749 0.00055011 0.000107292 -0.000157921
779 1 83.4852 36.0676 83.3853 0.000174753 0.000441146 -7.51894e-06
783 2 84.5994 37.8119 85.3507 -0.000528229 0.000370429 0.000237168
453 1 81.665 34.1596 81.7939 -0.000316319 0.000781729 0.000761819
455 5 83.8062 36.0337 80.3344 0.000570928 0.000297544 0.00042572
789 2 85.8694 36.5735 82.0771 2.73791e-05 0.00085148 -0.000243415
450 1 80.8654 36.1781 79.669 -0.00019547 -3.66349e-05 -0.000784268
831 1 81.6178 38.1857 84.1682 0.000366065 -0.000449906 -0.000217386
1072 1 81.8985 32.1019 89.4444 -0.000207723 -0.000135526 0.000321605
1074 1 81.6679 29.0998 90.4472 -1.95391e-05 0.000288726 2.9735e-05
1415 1 83.375 31.0109 92.0217 0.000502435 0.000108671 0.000118865
680 1 85.4436 28.8874 86.9522 0.000691496 -0.000204206 0.000140535
1077 1 83.4053 31.2029 86.7108 0.000459586 0.000654671 -0.000739348
1078 2 84.1048 30.3854 89.2722 -0.000432015 0.000246578 0.000148509
1128 5 84.6419 33.2326 88.4273 5.33834e-06 -0.00040739 0.000116545
1070 3 80.7919 30.1662 87.8856 -0.000115491 8.96907e-05 -8.1254e-05
1423 1 85.9871 31.7847 90.7036 -0.000467127 -0.000479851 -0.000435889
1466 1 83.9127 35.6774 92.3006 -5.72116e-05 9.53929e-05 -0.000329852
1469 1 83.7348 38.2355 90.8046 0.000558463 0.000637609 -0.000175075
1416 1 81.4814 33.6634 92.472 -0.000540062 -0.000585139 -0.000772603
1126 1 82.4273 37.0661 86.8616 0.000147944 -0.000447048 -0.000510842
1133 2 83.7658 33.4884 90.8166 0.000176563 -0.000120554 -0.00109373
1124 1 81.9685 35.2476 89.6874 -0.000408341 9.15493e-05 0.000126886
1125 2 81.5586 37.9885 89.2013 -0.00042711 0.000244258 0.000376359
1464 1 81.1806 37.0426 91.8068 0.00010557 0.000760356 0.000295946
1127 5 82.1957 34.0352 87.1871 0.000611444 0.000294457 8.99677e-05
1130 1 84.8058 36.1751 88.8475 -0.000660298 -0.00102425 0.000776976
1412 2 82.5836 28.6997 93.0118 -0.000803029 0.000100697 5.69347e-05
1414 1 81.8081 31.2698 94.5842 0.000424311 0.000348443 2.04236e-05
1417 4 84.8292 33.049 93.2487 0.000419838 -2.03645e-06 -0.000490444
1689 1 84.3597 31.8977 95.7555 -0.000148905 0.000502425 0.00024825
1691 4 81.2406 31.6977 97.3524 0.727759 0.247925 -0.169175
1692 2 82.5243 28.9261 96.3756 0.11163 0.275085 -0.190338
1693 1 84.3277 31.07 98.5265 -0.0953258 -0.685314 -0.112294
1419 3 84.1563 29.4446 94.6772 -0.000370911 5.11409e-05 -0.000453033
1732 5 84.286 34.2048 97.4701 0.000243942 -0.000147441 -0.000492205
1736 4 84.9133 38.1904 96.2683 0.000334679 -0.000829583 0.00073286
1735 3 85.1377 38.0646 98.8525 -5.30609e-06 0.000314357 -0.000234839
1734 1 82.7925 36.6198 96.8018 -0.0001379 0.000574098 -0.000228789
1463 4 82.6614 34.2317 95.0592 -0.000650282 -0.000544876 -0.000759167
1465 2 83.2336 37.7291 93.9559 0.000125151 0.000397789 0.000137754
1467 4 84.9078 35.9601 94.9892 -0.00108108 -0.00155013 0.000224832
1731 4 80.8446 35.0474 97.6424 -0.113036 -0.421783 0.0117946
1694 3 82.9744 33.1203 99.4385 -0.263869 0.248407 -0.217494
1695 2 85.57 33.4369 99.7608 0.279597 0.0412054 0.92589