LAMMPS (2 Aug 2023)
WARNING: Using I/O redirection is unreliable with parallel runs. Better to use the -in switch to read input files. (src/lammps.cpp:537)
OMP_NUM_THREADS environment is not set. Defaulting to 1 thread. (src/comm.cpp:98)
  using 1 OpenMP thread(s) per MPI task

            dimension 3
            units metal
            boundary s s s
            atom_style atomic
            timestep 0.001
            region myregion block 68.20034 114.37180000000001 16.759 59.9777 64.48494280802294 107.90038853868197  units box
            create_box 5 myregion
Created orthogonal box = (68.20034 16.759 64.484943) to (114.3718 59.9777 107.90039)
  8 by 4 by 6 MPI processor grid
            mass 1 91.224
            mass 2 63.546
            mass 3 58.693
            mass 4 26.982
            mass 5 47.867 
            pair_style eam/alloy
            pair_coeff * * ZrTiCuNiAl_Zhou04.eam.alloy Zr Cu Ni Al Ti
Reading eam/alloy potential file ZrTiCuNiAl_Zhou04.eam.alloy with DATE: 2018-03-30
            create_atoms 1 single 80.3283 27.9578 71.34005501432667
Created 1 atoms
  using lattice units in orthogonal box = (68.195723 16.754678 64.480601) to (114.37642 59.982022 107.90473)
  create_atoms CPU = 0.000 seconds
create_atoms 1 single 83.23294 27.4168 70.81697100286533
Created 1 atoms
  using lattice units in orthogonal box = (68.195723 16.754678 64.480601) to (114.37642 59.982022 107.90473)
  create_atoms CPU = 0.000 seconds
create_atoms 1 single 85.76458 28.0728 69.83302223495703
Created 1 atoms
  using lattice units in orthogonal box = (68.195723 16.754678 64.480601) to (114.37642 59.982022 107.90473)
  create_atoms CPU = 0.000 seconds
create_atoms 2 single 88.32672000000001 27.8478 69.2315359312321
Created 1 atoms
  using lattice units in orthogonal box = (68.195723 16.754678 64.480601) to (114.37642 59.982022 107.90473)
  create_atoms CPU = 0.000 seconds
create_atoms 1 single 88.82116 25.8319 71.38568916905446
Created 1 atoms
  using lattice units in orthogonal box = (68.195723 16.754678 64.480601) to (114.37642 59.982022 107.90473)
  create_atoms CPU = 0.000 seconds
create_atoms 2 single 91.15168 27.4889 71.06635060171921
Created 1 atoms
  using lattice units in orthogonal box = (68.195723 16.754678 64.480601) to (114.37642 59.982022 107.90473)
  create_atoms CPU = 0.000 seconds
create_atoms 3 single 76.76796 31.3167 71.31532813753583
Created 1 atoms
  using lattice units in orthogonal box = (68.195723 16.754678 64.480601) to (114.37642 59.982022 107.90473)
  create_atoms CPU = 0.000 seconds
create_atoms 2 single 78.32684 30.2157 70.07365696275073
Created 1 atoms
  using lattice units in orthogonal box = (68.195723 16.754678 64.480601) to (114.37642 59.982022 107.90473)
  create_atoms CPU = 0.000 seconds
create_atoms 3 single 78.58946 33.0285 68.75921237822351
Created 1 atoms
  using lattice units in orthogonal box = (68.195723 16.754678 64.480601) to (114.37642 59.982022 107.90473)
  create_atoms CPU = 0.000 seconds
create_atoms 3 single 80.96334 30.3521 70.6420735816619
Created 1 atoms
  using lattice units in orthogonal box = (68.195723 16.754678 64.480601) to (114.37642 59.982022 107.90473)
  create_atoms CPU = 0.000 seconds
create_atoms 1 single 83.46816 30.2683 70.04832699140402
Created 1 atoms
  using lattice units in orthogonal box = (68.195723 16.754678 64.480601) to (114.37642 59.982022 107.90473)
  create_atoms CPU = 0.000 seconds
create_atoms 1 single 81.11588 32.1646 68.8791276790831
Created 1 atoms
  using lattice units in orthogonal box = (68.195723 16.754678 64.480601) to (114.37642 59.982022 107.90473)
  create_atoms CPU = 0.000 seconds
create_atoms 3 single 84.30998 29.8351 67.94684401146134
Created 1 atoms
  using lattice units in orthogonal box = (68.195723 16.754678 64.480601) to (114.37642 59.982022 107.90473)
  create_atoms CPU = 0.000 seconds
create_atoms 1 single 84.32236 32.4499 68.54260091690546
Created 1 atoms
  using lattice units in orthogonal box = (68.195723 16.754678 64.480601) to (114.37642 59.982022 107.90473)
  create_atoms CPU = 0.000 seconds
create_atoms 1 single 87.14064 30.535 68.73428446991406
Created 1 atoms
  using lattice units in orthogonal box = (68.195723 16.754678 64.480601) to (114.37642 59.982022 107.90473)
  create_atoms CPU = 0.000 seconds
create_atoms 3 single 87.05856 33.2428 69.00748630372495
Created 1 atoms
  using lattice units in orthogonal box = (68.195723 16.754678 64.480601) to (114.37642 59.982022 107.90473)
  create_atoms CPU = 0.000 seconds
create_atoms 2 single 86.34262000000001 30.8024 70.80762303724929
Created 1 atoms
  using lattice units in orthogonal box = (68.195723 16.754678 64.480601) to (114.37642 59.982022 107.90473)
  create_atoms CPU = 0.000 seconds
create_atoms 1 single 88.8896 32.0486 71.31844412607451
Created 1 atoms
  using lattice units in orthogonal box = (68.195723 16.754678 64.480601) to (114.37642 59.982022 107.90473)
  create_atoms CPU = 0.000 seconds
create_atoms 1 single 90.35430000000001 30.0396 69.98711289398281
Created 1 atoms
  using lattice units in orthogonal box = (68.195723 16.754678 64.480601) to (114.37642 59.982022 107.90473)
  create_atoms CPU = 0.000 seconds
create_atoms 1 single 93.06264 31.6316 69.6932048137536
Created 1 atoms
  using lattice units in orthogonal box = (68.195723 16.754678 64.480601) to (114.37642 59.982022 107.90473)
  create_atoms CPU = 0.000 seconds
create_atoms 1 single 89.7608 32.9053 68.89752206303726
Created 1 atoms
  using lattice units in orthogonal box = (68.195723 16.754678 64.480601) to (114.37642 59.982022 107.90473)
  create_atoms CPU = 0.000 seconds
create_atoms 1 single 95.59882 33.4065 70.07486315186247
Created 1 atoms
  using lattice units in orthogonal box = (68.195723 16.754678 64.480601) to (114.37642 59.982022 107.90473)
  create_atoms CPU = 0.000 seconds
create_atoms 4 single 74.42924000000001 36.0718 69.59268905444128
Created 1 atoms
  using lattice units in orthogonal box = (68.195723 16.754678 64.480601) to (114.37642 59.982022 107.90473)
  create_atoms CPU = 0.000 seconds
create_atoms 5 single 78.47382 35.6346 67.93488263610315
Created 1 atoms
  using lattice units in orthogonal box = (68.195723 16.754678 64.480601) to (114.37642 59.982022 107.90473)
  create_atoms CPU = 0.000 seconds
create_atoms 1 single 77.41246 34.7897 69.96891954154728
Created 1 atoms
  using lattice units in orthogonal box = (68.195723 16.754678 64.480601) to (114.37642 59.982022 107.90473)
  create_atoms CPU = 0.000 seconds
create_atoms 2 single 76.59936 37.6213 69.19595335243554
Created 1 atoms
  using lattice units in orthogonal box = (68.195723 16.754678 64.480601) to (114.37642 59.982022 107.90473)
  create_atoms CPU = 0.000 seconds
create_atoms 1 single 79.51388 37.3655 70.76078269340975
Created 1 atoms
  using lattice units in orthogonal box = (68.195723 16.754678 64.480601) to (114.37642 59.982022 107.90473)
  create_atoms CPU = 0.000 seconds
create_atoms 2 single 83.48258 33.6035 70.39540790830947
Created 1 atoms
  using lattice units in orthogonal box = (68.195723 16.754678 64.480601) to (114.37642 59.982022 107.90473)
  create_atoms CPU = 0.000 seconds
create_atoms 1 single 80.93531999999999 34.6329 70.50155255014327
Created 1 atoms
  using lattice units in orthogonal box = (68.195723 16.754678 64.480601) to (114.37642 59.982022 107.90473)
  create_atoms CPU = 0.000 seconds
create_atoms 3 single 80.8081 36.8803 69.01512550143268
Created 1 atoms
  using lattice units in orthogonal box = (68.195723 16.754678 64.480601) to (114.37642 59.982022 107.90473)
  create_atoms CPU = 0.000 seconds
create_atoms 1 single 81.7863 34.8223 67.99137249283669
Created 1 atoms
  using lattice units in orthogonal box = (68.195723 16.754678 64.480601) to (114.37642 59.982022 107.90473)
  create_atoms CPU = 0.000 seconds
create_atoms 1 single 83.57248 36.4868 70.46526636103152
Created 1 atoms
  using lattice units in orthogonal box = (68.195723 16.754678 64.480601) to (114.37642 59.982022 107.90473)
  create_atoms CPU = 0.000 seconds
create_atoms 4 single 82.98125999999999 36.7337 66.70567541547278
Created 1 atoms
  using lattice units in orthogonal box = (68.195723 16.754678 64.480601) to (114.37642 59.982022 107.90473)
  create_atoms CPU = 0.000 seconds
create_atoms 1 single 85.23296 35.3785 68.92606853868196
Created 1 atoms
  using lattice units in orthogonal box = (68.195723 16.754678 64.480601) to (114.37642 59.982022 107.90473)
  create_atoms CPU = 0.000 seconds
create_atoms 4 single 85.73053999999999 37.7225 67.14915094555874
Created 1 atoms
  using lattice units in orthogonal box = (68.195723 16.754678 64.480601) to (114.37642 59.982022 107.90473)
  create_atoms CPU = 0.000 seconds
create_atoms 2 single 86.13436 33.5034 70.99418028653297
Created 1 atoms
  using lattice units in orthogonal box = (68.195723 16.754678 64.480601) to (114.37642 59.982022 107.90473)
  create_atoms CPU = 0.000 seconds
create_atoms 4 single 87.31158 37.7329 69.90740389684814
Created 1 atoms
  using lattice units in orthogonal box = (68.195723 16.754678 64.480601) to (114.37642 59.982022 107.90473)
  create_atoms CPU = 0.000 seconds
create_atoms 1 single 87.90554 35.5437 68.08646040114614
Created 1 atoms
  using lattice units in orthogonal box = (68.195723 16.754678 64.480601) to (114.37642 59.982022 107.90473)
  create_atoms CPU = 0.000 seconds
create_atoms 1 single 88.39848 35.0831 71.0010153581662
Created 1 atoms
  using lattice units in orthogonal box = (68.195723 16.754678 64.480601) to (114.37642 59.982022 107.90473)
  create_atoms CPU = 0.000 seconds
create_atoms 4 single 90.40894 36.6066 67.41451255014327
Created 1 atoms
  using lattice units in orthogonal box = (68.195723 16.754678 64.480601) to (114.37642 59.982022 107.90473)
  create_atoms CPU = 0.000 seconds
create_atoms 3 single 93.50708 34.2512 71.01810303724929
Created 1 atoms
  using lattice units in orthogonal box = (68.195723 16.754678 64.480601) to (114.37642 59.982022 107.90473)
  create_atoms CPU = 0.000 seconds
create_atoms 1 single 92.31086 34.2668 68.34408229226361
Created 1 atoms
  using lattice units in orthogonal box = (68.195723 16.754678 64.480601) to (114.37642 59.982022 107.90473)
  create_atoms CPU = 0.000 seconds
create_atoms 1 single 90.99872 35.5101 70.24674510028655
Created 1 atoms
  using lattice units in orthogonal box = (68.195723 16.754678 64.480601) to (114.37642 59.982022 107.90473)
  create_atoms CPU = 0.000 seconds
create_atoms 1 single 93.89016 36.6853 69.917656504298
Created 1 atoms
  using lattice units in orthogonal box = (68.195723 16.754678 64.480601) to (114.37642 59.982022 107.90473)
  create_atoms CPU = 0.000 seconds
create_atoms 4 single 89.85276 38.1028 69.27184275071633
Created 1 atoms
  using lattice units in orthogonal box = (68.195723 16.754678 64.480601) to (114.37642 59.982022 107.90473)
  create_atoms CPU = 0.000 seconds
create_atoms 2 single 97.11166 37.1609 70.99468286532952
Created 1 atoms
  using lattice units in orthogonal box = (68.195723 16.754678 64.480601) to (114.37642 59.982022 107.90473)
  create_atoms CPU = 0.000 seconds
create_atoms 1 single 98.56392 34.6253 71.34387461318053
Created 1 atoms
  using lattice units in orthogonal box = (68.195723 16.754678 64.480601) to (114.37642 59.982022 107.90473)
  create_atoms CPU = 0.000 seconds
create_atoms 4 single 71.96062 39.5491 70.88803564469914
Created 1 atoms
  using lattice units in orthogonal box = (68.195723 16.754678 64.480601) to (114.37642 59.982022 107.90473)
  create_atoms CPU = 0.000 seconds
create_atoms 1 single 74.80896 38.8895 70.50165306590259
Created 1 atoms
  using lattice units in orthogonal box = (68.195723 16.754678 64.480601) to (114.37642 59.982022 107.90473)
  create_atoms CPU = 0.000 seconds
create_atoms 4 single 73.71284 41.527 69.38713432664757
Created 1 atoms
  using lattice units in orthogonal box = (68.195723 16.754678 64.480601) to (114.37642 59.982022 107.90473)
  create_atoms CPU = 0.000 seconds
create_atoms 1 single 78.4847 38.682 68.0657541547278
Created 1 atoms
  using lattice units in orthogonal box = (68.195723 16.754678 64.480601) to (114.37642 59.982022 107.90473)
  create_atoms CPU = 0.000 seconds
create_atoms 1 single 76.39664 40.5321 68.9574294555874
Created 1 atoms
  using lattice units in orthogonal box = (68.195723 16.754678 64.480601) to (114.37642 59.982022 107.90473)
  create_atoms CPU = 0.000 seconds
create_atoms 1 single 78.26712 42.79 68.32237088825215
Created 1 atoms
  using lattice units in orthogonal box = (68.195723 16.754678 64.480601) to (114.37642 59.982022 107.90473)
  create_atoms CPU = 0.000 seconds
create_atoms 1 single 79.5764 40.5537 70.44646991404012
Created 1 atoms
  using lattice units in orthogonal box = (68.195723 16.754678 64.480601) to (114.37642 59.982022 107.90473)
  create_atoms CPU = 0.000 seconds
create_atoms 1 single 78.07958 42.7909 71.08946922636103
Created 1 atoms
  using lattice units in orthogonal box = (68.195723 16.754678 64.480601) to (114.37642 59.982022 107.90473)
  create_atoms CPU = 0.000 seconds
create_atoms 3 single 77.79334 39.1275 71.32759106017193
Created 1 atoms
  using lattice units in orthogonal box = (68.195723 16.754678 64.480601) to (114.37642 59.982022 107.90473)
  create_atoms CPU = 0.000 seconds
create_atoms 5 single 80.99362 38.466 67.13527977077365
Created 1 atoms
  using lattice units in orthogonal box = (68.195723 16.754678 64.480601) to (114.37642 59.982022 107.90473)
  create_atoms CPU = 0.000 seconds
create_atoms 2 single 79.83612000000001 40.9001 67.63685340974213
Created 1 atoms
  using lattice units in orthogonal box = (68.195723 16.754678 64.480601) to (114.37642 59.982022 107.90473)
  create_atoms CPU = 0.000 seconds
create_atoms 3 single 84.00644000000001 43.2042 69.35295896848139
Created 1 atoms
  using lattice units in orthogonal box = (68.195723 16.754678 64.480601) to (114.37642 59.982022 107.90473)
  create_atoms CPU = 0.000 seconds
create_atoms 1 single 82.62452 41.0872 67.81175083094557
Created 1 atoms
  using lattice units in orthogonal box = (68.195723 16.754678 64.480601) to (114.37642 59.982022 107.90473)
  create_atoms CPU = 0.000 seconds
create_atoms 1 single 81.90164 39.2016 69.94801226361032
Created 1 atoms
  using lattice units in orthogonal box = (68.195723 16.754678 64.480601) to (114.37642 59.982022 107.90473)
  create_atoms CPU = 0.000 seconds
create_atoms 3 single 81.5326 41.9469 69.72325902578797
Created 1 atoms
  using lattice units in orthogonal box = (68.195723 16.754678 64.480601) to (114.37642 59.982022 107.90473)
  create_atoms CPU = 0.000 seconds
create_atoms 2 single 84.01706 41.0639 70.49160148997136
Created 1 atoms
  using lattice units in orthogonal box = (68.195723 16.754678 64.480601) to (114.37642 59.982022 107.90473)
  create_atoms CPU = 0.000 seconds
create_atoms 4 single 84.26952 38.6074 68.80735942693411
Created 1 atoms
  using lattice units in orthogonal box = (68.195723 16.754678 64.480601) to (114.37642 59.982022 107.90473)
  create_atoms CPU = 0.000 seconds
create_atoms 4 single 86.22785999999999 39.4083 71.33291839541548
Created 1 atoms
  using lattice units in orthogonal box = (68.195723 16.754678 64.480601) to (114.37642 59.982022 107.90473)
  create_atoms CPU = 0.000 seconds
create_atoms 4 single 84.88554 41.0732 66.57621111747852
Created 1 atoms
  using lattice units in orthogonal box = (68.195723 16.754678 64.480601) to (114.37642 59.982022 107.90473)
  create_atoms CPU = 0.000 seconds
create_atoms 1 single 87.9749 42.5969 67.32696332378224
Created 1 atoms
  using lattice units in orthogonal box = (68.195723 16.754678 64.480601) to (114.37642 59.982022 107.90473)
  create_atoms CPU = 0.000 seconds
create_atoms 1 single 86.07672000000001 41.3441 69.36019610315188
Created 1 atoms
  using lattice units in orthogonal box = (68.195723 16.754678 64.480601) to (114.37642 59.982022 107.90473)
  create_atoms CPU = 0.000 seconds
create_atoms 4 single 87.7431 39.7797 67.82049570200573
Created 1 atoms
  using lattice units in orthogonal box = (68.195723 16.754678 64.480601) to (114.37642 59.982022 107.90473)
  create_atoms CPU = 0.000 seconds
create_atoms 1 single 88.87684 42.876 70.30032000000001
Created 1 atoms
  using lattice units in orthogonal box = (68.195723 16.754678 64.480601) to (114.37642 59.982022 107.90473)
  create_atoms CPU = 0.000 seconds
create_atoms 4 single 89.1152 39.9309 70.85154842406878
Created 1 atoms
  using lattice units in orthogonal box = (68.195723 16.754678 64.480601) to (114.37642 59.982022 107.90473)
  create_atoms CPU = 0.000 seconds
create_atoms 4 single 90.12052 40.8507 66.48494280802294
Created 1 atoms
  using lattice units in orthogonal box = (68.195723 16.754678 64.480601) to (114.37642 59.982022 107.90473)
  create_atoms CPU = 0.000 seconds
create_atoms 1 single 90.7402 41.115 69.24681432664757
Created 1 atoms
  using lattice units in orthogonal box = (68.195723 16.754678 64.480601) to (114.37642 59.982022 107.90473)
  create_atoms CPU = 0.000 seconds
create_atoms 5 single 92.23264 38.9926 68.43625524355302
Created 1 atoms
  using lattice units in orthogonal box = (68.195723 16.754678 64.480601) to (114.37642 59.982022 107.90473)
  create_atoms CPU = 0.000 seconds
create_atoms 1 single 93.30328 41.7899 68.32629100286535
Created 1 atoms
  using lattice units in orthogonal box = (68.195723 16.754678 64.480601) to (114.37642 59.982022 107.90473)
  create_atoms CPU = 0.000 seconds
create_atoms 4 single 92.33478000000001 38.8857 71.34226636103153
Created 1 atoms
  using lattice units in orthogonal box = (68.195723 16.754678 64.480601) to (114.37642 59.982022 107.90473)
  create_atoms CPU = 0.000 seconds
create_atoms 1 single 93.9425 41.2555 71.17420401146133
Created 1 atoms
  using lattice units in orthogonal box = (68.195723 16.754678 64.480601) to (114.37642 59.982022 107.90473)
  create_atoms CPU = 0.000 seconds
create_atoms 1 single 95.3602 39.4288 69.63329742120344
Created 1 atoms
  using lattice units in orthogonal box = (68.195723 16.754678 64.480601) to (114.37642 59.982022 107.90473)
  create_atoms CPU = 0.000 seconds
create_atoms 5 single 96.46256 42.1786 70.50466853868195
Created 1 atoms
  using lattice units in orthogonal box = (68.195723 16.754678 64.480601) to (114.37642 59.982022 107.90473)
  create_atoms CPU = 0.000 seconds
create_atoms 1 single 75.18773999999999 43.697 71.15470395415473
Created 1 atoms
  using lattice units in orthogonal box = (68.195723 16.754678 64.480601) to (114.37642 59.982022 107.90473)
  create_atoms CPU = 0.000 seconds
create_atoms 3 single 75.80164 43.3492 68.85389822349572
Created 1 atoms
  using lattice units in orthogonal box = (68.195723 16.754678 64.480601) to (114.37642 59.982022 107.90473)
  create_atoms CPU = 0.000 seconds
create_atoms 1 single 77.59562000000001 45.5629 70.27941272206306
Created 1 atoms
  using lattice units in orthogonal box = (68.195723 16.754678 64.480601) to (114.37642 59.982022 107.90473)
  create_atoms CPU = 0.000 seconds
create_atoms 5 single 79.04086 45.7224 68.40539690544414
Created 1 atoms
  using lattice units in orthogonal box = (68.195723 16.754678 64.480601) to (114.37642 59.982022 107.90473)
  create_atoms CPU = 0.000 seconds
create_atoms 5 single 79.52144 47.9968 70.0897394842407
Created 1 atoms
  using lattice units in orthogonal box = (68.195723 16.754678 64.480601) to (114.37642 59.982022 107.90473)
  create_atoms CPU = 0.000 seconds
create_atoms 4 single 83.07128 43.6221 66.62556435530087
Created 1 atoms
  using lattice units in orthogonal box = (68.195723 16.754678 64.480601) to (114.37642 59.982022 107.90473)
  create_atoms CPU = 0.000 seconds
create_atoms 2 single 80.3479 43.8363 70.44395702005731
Created 1 atoms
  using lattice units in orthogonal box = (68.195723 16.754678 64.480601) to (114.37642 59.982022 107.90473)
  create_atoms CPU = 0.000 seconds
create_atoms 1 single 81.16004000000001 43.9325 68.1522982234957
Created 1 atoms
  using lattice units in orthogonal box = (68.195723 16.754678 64.480601) to (114.37642 59.982022 107.90473)
  create_atoms CPU = 0.000 seconds
create_atoms 1 single 83.62308 45.8998 68.9052617765043
Created 1 atoms
  using lattice units in orthogonal box = (68.195723 16.754678 64.480601) to (114.37642 59.982022 107.90473)
  create_atoms CPU = 0.000 seconds
create_atoms 3 single 81.67862000000001 46.0351 70.1386906590258
Created 1 atoms
  using lattice units in orthogonal box = (68.195723 16.754678 64.480601) to (114.37642 59.982022 107.90473)
  create_atoms CPU = 0.000 seconds
create_atoms 1 single 83.30264 44.0658 71.39493661891117
Created 1 atoms
  using lattice units in orthogonal box = (68.195723 16.754678 64.480601) to (114.37642 59.982022 107.90473)
  create_atoms CPU = 0.000 seconds
create_atoms 1 single 86.00064 44.2055 68.31262085959887
Created 1 atoms
  using lattice units in orthogonal box = (68.195723 16.754678 64.480601) to (114.37642 59.982022 107.90473)
  create_atoms CPU = 0.000 seconds
create_atoms 2 single 88.86568 45.3817 71.32668641833813
Created 1 atoms
  using lattice units in orthogonal box = (68.195723 16.754678 64.480601) to (114.37642 59.982022 107.90473)
  create_atoms CPU = 0.000 seconds
create_atoms 1 single 86.74824 46.8319 69.77060194842407
Created 1 atoms
  using lattice units in orthogonal box = (68.195723 16.754678 64.480601) to (114.37642 59.982022 107.90473)
  create_atoms CPU = 0.000 seconds
create_atoms 1 single 89.05496000000001 45.3681 68.81700893982809
Created 1 atoms
  using lattice units in orthogonal box = (68.195723 16.754678 64.480601) to (114.37642 59.982022 107.90473)
  create_atoms CPU = 0.000 seconds
create_atoms 2 single 89.59524 47.7642 70.1827165616046
Created 1 atoms
  using lattice units in orthogonal box = (68.195723 16.754678 64.480601) to (114.37642 59.982022 107.90473)
  create_atoms CPU = 0.000 seconds
create_atoms 1 single 86.5169 43.9939 71.30587965616047
Created 1 atoms
  using lattice units in orthogonal box = (68.195723 16.754678 64.480601) to (114.37642 59.982022 107.90473)
  create_atoms CPU = 0.000 seconds
create_atoms 1 single 90.89884 43.7017 67.64821169054443
Created 1 atoms
  using lattice units in orthogonal box = (68.195723 16.754678 64.480601) to (114.37642 59.982022 107.90473)
  create_atoms CPU = 0.000 seconds
create_atoms 2 single 91.45938 43.6098 70.26674773638969
Created 1 atoms
  using lattice units in orthogonal box = (68.195723 16.754678 64.480601) to (114.37642 59.982022 107.90473)
  create_atoms CPU = 0.000 seconds
create_atoms 2 single 93.9681 43.8652 70.20121146131805
Created 1 atoms
  using lattice units in orthogonal box = (68.195723 16.754678 64.480601) to (114.37642 59.982022 107.90473)
  create_atoms CPU = 0.000 seconds
create_atoms 1 single 92.06716 46.1428 69.39045134670488
Created 1 atoms
  using lattice units in orthogonal box = (68.195723 16.754678 64.480601) to (114.37642 59.982022 107.90473)
  create_atoms CPU = 0.000 seconds
create_atoms 4 single 97.11468 45.2181 71.19551335243554
Created 1 atoms
  using lattice units in orthogonal box = (68.195723 16.754678 64.480601) to (114.37642 59.982022 107.90473)
  create_atoms CPU = 0.000 seconds
create_atoms 1 single 81.86784 48.3047 69.05241684813754
Created 1 atoms
  using lattice units in orthogonal box = (68.195723 16.754678 64.480601) to (114.37642 59.982022 107.90473)
  create_atoms CPU = 0.000 seconds
create_atoms 2 single 81.50628 50.0154 70.93216206303727
Created 1 atoms
  using lattice units in orthogonal box = (68.195723 16.754678 64.480601) to (114.37642 59.982022 107.90473)
  create_atoms CPU = 0.000 seconds
create_atoms 1 single 85.02538 48.9366 70.3647506017192
Created 1 atoms
  using lattice units in orthogonal box = (68.195723 16.754678 64.480601) to (114.37642 59.982022 107.90473)
  create_atoms CPU = 0.000 seconds
create_atoms 2 single 87.16246000000001 22.6264 75.79179747851003
Created 1 atoms
  using lattice units in orthogonal box = (68.195723 16.754678 64.480601) to (114.37642 59.982022 107.90473)
  create_atoms CPU = 0.000 seconds
create_atoms 1 single 89.64066 23.4217 75.51387140401147
Created 1 atoms
  using lattice units in orthogonal box = (68.195723 16.754678 64.480601) to (114.37642 59.982022 107.90473)
  create_atoms CPU = 0.000 seconds
create_atoms 1 single 75.44446 26.8078 74.8982123782235
Created 1 atoms
  using lattice units in orthogonal box = (68.195723 16.754678 64.480601) to (114.37642 59.982022 107.90473)
  create_atoms CPU = 0.000 seconds
create_atoms 3 single 77.56402 25.184 74.55334280802293
Created 1 atoms
  using lattice units in orthogonal box = (68.195723 16.754678 64.480601) to (114.37642 59.982022 107.90473)
  create_atoms CPU = 0.000 seconds
create_atoms 3 single 77.54034 27.7613 74.25008676217766
Created 1 atoms
  using lattice units in orthogonal box = (68.195723 16.754678 64.480601) to (114.37642 59.982022 107.90473)
  create_atoms CPU = 0.000 seconds
create_atoms 1 single 79.73816 26.4182 73.79856997134671
Created 1 atoms
  using lattice units in orthogonal box = (68.195723 16.754678 64.480601) to (114.37642 59.982022 107.90473)
  create_atoms CPU = 0.000 seconds
create_atoms 1 single 80.30418 23.9642 75.87753742120346
Created 1 atoms
  using lattice units in orthogonal box = (68.195723 16.754678 64.480601) to (114.37642 59.982022 107.90473)
  create_atoms CPU = 0.000 seconds
create_atoms 2 single 85.5527 24.263 76.32362636103153
Created 1 atoms
  using lattice units in orthogonal box = (68.195723 16.754678 64.480601) to (114.37642 59.982022 107.90473)
  create_atoms CPU = 0.000 seconds
create_atoms 1 single 82.10288 25.5922 72.41024630372495
Created 1 atoms
  using lattice units in orthogonal box = (68.195723 16.754678 64.480601) to (114.37642 59.982022 107.90473)
  create_atoms CPU = 0.000 seconds
create_atoms 3 single 82.09518 27.8257 74.0456377077364
Created 1 atoms
  using lattice units in orthogonal box = (68.195723 16.754678 64.480601) to (114.37642 59.982022 107.90473)
  create_atoms CPU = 0.000 seconds
create_atoms 4 single 84.8307 24.0573 73.56949455587393
Created 1 atoms
  using lattice units in orthogonal box = (68.195723 16.754678 64.480601) to (114.37642 59.982022 107.90473)
  create_atoms CPU = 0.000 seconds
create_atoms 1 single 82.7603 25.1262 75.23453810888253
Created 1 atoms
  using lattice units in orthogonal box = (68.195723 16.754678 64.480601) to (114.37642 59.982022 107.90473)
  create_atoms CPU = 0.000 seconds
create_atoms 1 single 84.83384 27.1441 74.01689020057307
Created 1 atoms
  using lattice units in orthogonal box = (68.195723 16.754678 64.480601) to (114.37642 59.982022 107.90473)
  create_atoms CPU = 0.000 seconds
create_atoms 3 single 87.94726 23.8627 72.89191782234958
Created 1 atoms
  using lattice units in orthogonal box = (68.195723 16.754678 64.480601) to (114.37642 59.982022 107.90473)
  create_atoms CPU = 0.000 seconds
create_atoms 1 single 86.20902000000001 26.0614 72.08819381088826
Created 1 atoms
  using lattice units in orthogonal box = (68.195723 16.754678 64.480601) to (114.37642 59.982022 107.90473)
  create_atoms CPU = 0.000 seconds
create_atoms 4 single 87.26952000000001 25.3373 75.11723621776505
Created 1 atoms
  using lattice units in orthogonal box = (68.195723 16.754678 64.480601) to (114.37642 59.982022 107.90473)
  create_atoms CPU = 0.000 seconds
create_atoms 1 single 90.98128 23.996 73.49079071633238
Created 1 atoms
  using lattice units in orthogonal box = (68.195723 16.754678 64.480601) to (114.37642 59.982022 107.90473)
  create_atoms CPU = 0.000 seconds
create_atoms 3 single 89.29922 25.8244 74.08896
Created 1 atoms
  using lattice units in orthogonal box = (68.195723 16.754678 64.480601) to (114.37642 59.982022 107.90473)
  create_atoms CPU = 0.000 seconds
create_atoms 4 single 87.89958 27.9109 74.11851163323784
Created 1 atoms
  using lattice units in orthogonal box = (68.195723 16.754678 64.480601) to (114.37642 59.982022 107.90473)
  create_atoms CPU = 0.000 seconds
create_atoms 2 single 91.97174000000001 25.1436 75.9970506590258
Created 1 atoms
  using lattice units in orthogonal box = (68.195723 16.754678 64.480601) to (114.37642 59.982022 107.90473)
  create_atoms CPU = 0.000 seconds
create_atoms 1 single 91.45126 26.9524 73.6271906017192
Created 1 atoms
  using lattice units in orthogonal box = (68.195723 16.754678 64.480601) to (114.37642 59.982022 107.90473)
  create_atoms CPU = 0.000 seconds
create_atoms 1 single 94.11576000000001 26.6698 72.61700722063038
Created 1 atoms
  using lattice units in orthogonal box = (68.195723 16.754678 64.480601) to (114.37642 59.982022 107.90473)
  create_atoms CPU = 0.000 seconds
create_atoms 1 single 94.07446 25.0994 74.93590578796562
Created 1 atoms
  using lattice units in orthogonal box = (68.195723 16.754678 64.480601) to (114.37642 59.982022 107.90473)
  create_atoms CPU = 0.000 seconds
create_atoms 3 single 93.7699 28.4522 74.23189340974213
Created 1 atoms
  using lattice units in orthogonal box = (68.195723 16.754678 64.480601) to (114.37642 59.982022 107.90473)
  create_atoms CPU = 0.000 seconds
create_atoms 1 single 96.99482 26.5229 75.00214567335244
Created 1 atoms
  using lattice units in orthogonal box = (68.195723 16.754678 64.480601) to (114.37642 59.982022 107.90473)
  create_atoms CPU = 0.000 seconds
create_atoms 3 single 99.89304000000001 27.065 75.921161260745
Created 1 atoms
  using lattice units in orthogonal box = (68.195723 16.754678 64.480601) to (114.37642 59.982022 107.90473)
  create_atoms CPU = 0.000 seconds
create_atoms 5 single 71.61176 30.2144 76.22703071633238
Created 1 atoms
  using lattice units in orthogonal box = (68.195723 16.754678 64.480601) to (114.37642 59.982022 107.90473)
  create_atoms CPU = 0.000 seconds
create_atoms 1 single 75.22236000000001 29.3477 73.34222842406878
Created 1 atoms
  using lattice units in orthogonal box = (68.195723 16.754678 64.480601) to (114.37642 59.982022 107.90473)
  create_atoms CPU = 0.000 seconds
create_atoms 1 single 74.86934 32.2291 72.83030166189113
Created 1 atoms
  using lattice units in orthogonal box = (68.195723 16.754678 64.480601) to (114.37642 59.982022 107.90473)
  create_atoms CPU = 0.000 seconds
create_atoms 1 single 74.2043 29.3183 75.77179484240688
Created 1 atoms
  using lattice units in orthogonal box = (68.195723 16.754678 64.480601) to (114.37642 59.982022 107.90473)
  create_atoms CPU = 0.000 seconds
create_atoms 2 single 75.8222 31.5057 75.61951346704872
Created 1 atoms
  using lattice units in orthogonal box = (68.195723 16.754678 64.480601) to (114.37642 59.982022 107.90473)
  create_atoms CPU = 0.000 seconds
create_atoms 1 single 72.91392 32.2351 74.96445226361033
Created 1 atoms
  using lattice units in orthogonal box = (68.195723 16.754678 64.480601) to (114.37642 59.982022 107.90473)
  create_atoms CPU = 0.000 seconds
create_atoms 1 single 77.80712000000001 28.7317 72.08618349570202
Created 1 atoms
  using lattice units in orthogonal box = (68.195723 16.754678 64.480601) to (114.37642 59.982022 107.90473)
  create_atoms CPU = 0.000 seconds
create_atoms 1 single 80.67254000000001 30.2662 73.27558647564472
Created 1 atoms
  using lattice units in orthogonal box = (68.195723 16.754678 64.480601) to (114.37642 59.982022 107.90473)
  create_atoms CPU = 0.000 seconds
create_atoms 1 single 77.92224 30.9282 73.99477673352436
Created 1 atoms
  using lattice units in orthogonal box = (68.195723 16.754678 64.480601) to (114.37642 59.982022 107.90473)
  create_atoms CPU = 0.000 seconds
create_atoms 1 single 79.48902 32.4981 71.42478979942695
Created 1 atoms
  using lattice units in orthogonal box = (68.195723 16.754678 64.480601) to (114.37642 59.982022 107.90473)
  create_atoms CPU = 0.000 seconds
create_atoms 3 single 79.82509999999999 28.9009 75.01742406876791
Created 1 atoms
  using lattice units in orthogonal box = (68.195723 16.754678 64.480601) to (114.37642 59.982022 107.90473)
  create_atoms CPU = 0.000 seconds
create_atoms 1 single 80.31302 33.0406 74.41513363896848
Created 1 atoms
  using lattice units in orthogonal box = (68.195723 16.754678 64.480601) to (114.37642 59.982022 107.90473)
  create_atoms CPU = 0.000 seconds
create_atoms 1 single 82.09506 30.6003 76.29940206303726
Created 1 atoms
  using lattice units in orthogonal box = (68.195723 16.754678 64.480601) to (114.37642 59.982022 107.90473)
  create_atoms CPU = 0.000 seconds
create_atoms 1 single 83.28664 29.6144 72.78155151862465
Created 1 atoms
  using lattice units in orthogonal box = (68.195723 16.754678 64.480601) to (114.37642 59.982022 107.90473)
  create_atoms CPU = 0.000 seconds
create_atoms 2 single 82.38586000000001 32.2711 71.85459518624643
Created 1 atoms
  using lattice units in orthogonal box = (68.195723 16.754678 64.480601) to (114.37642 59.982022 107.90473)
  create_atoms CPU = 0.000 seconds
create_atoms 1 single 85.2229 31.798 72.52865386819485
Created 1 atoms
  using lattice units in orthogonal box = (68.195723 16.754678 64.480601) to (114.37642 59.982022 107.90473)
  create_atoms CPU = 0.000 seconds
create_atoms 2 single 84.12599999999999 29.2523 75.5084435530086
Created 1 atoms
  using lattice units in orthogonal box = (68.195723 16.754678 64.480601) to (114.37642 59.982022 107.90473)
  create_atoms CPU = 0.000 seconds
create_atoms 1 single 83.71326 31.998 74.76804446991405
Created 1 atoms
  using lattice units in orthogonal box = (68.195723 16.754678 64.480601) to (114.37642 59.982022 107.90473)
  create_atoms CPU = 0.000 seconds
create_atoms 1 single 86.72864 32.9023 75.41305409742121
Created 1 atoms
  using lattice units in orthogonal box = (68.195723 16.754678 64.480601) to (114.37642 59.982022 107.90473)
  create_atoms CPU = 0.000 seconds
create_atoms 2 single 86.12888000000001 30.0268 74.67888699140401
Created 1 atoms
  using lattice units in orthogonal box = (68.195723 16.754678 64.480601) to (114.37642 59.982022 107.90473)
  create_atoms CPU = 0.000 seconds
create_atoms 2 single 85.74502 28.9799 72.2656041260745
Created 1 atoms
  using lattice units in orthogonal box = (68.195723 16.754678 64.480601) to (114.37642 59.982022 107.90473)
  create_atoms CPU = 0.000 seconds
create_atoms 1 single 88.6638 28.7673 71.75015931232093
Created 1 atoms
  using lattice units in orthogonal box = (68.195723 16.754678 64.480601) to (114.37642 59.982022 107.90473)
  create_atoms CPU = 0.000 seconds
create_atoms 1 single 88.22416 30.7481 73.61261581661891
Created 1 atoms
  using lattice units in orthogonal box = (68.195723 16.754678 64.480601) to (114.37642 59.982022 107.90473)
  create_atoms CPU = 0.000 seconds
create_atoms 4 single 90.60188000000001 28.8362 75.2513242406877
Created 1 atoms
  using lattice units in orthogonal box = (68.195723 16.754678 64.480601) to (114.37642 59.982022 107.90473)
  create_atoms CPU = 0.000 seconds
create_atoms 4 single 91.05404 32.3234 74.26315381088826
Created 1 atoms
  using lattice units in orthogonal box = (68.195723 16.754678 64.480601) to (114.37642 59.982022 107.90473)
  create_atoms CPU = 0.000 seconds
create_atoms 3 single 95.05392 32.5755 72.37365856733526
Created 1 atoms
  using lattice units in orthogonal box = (68.195723 16.754678 64.480601) to (114.37642 59.982022 107.90473)
  create_atoms CPU = 0.000 seconds
create_atoms 4 single 91.41334 29.9702 73.08209363896849
Created 1 atoms
  using lattice units in orthogonal box = (68.195723 16.754678 64.480601) to (114.37642 59.982022 107.90473)
  create_atoms CPU = 0.000 seconds
create_atoms 1 single 93.53528000000001 29.499 71.74432939828081
Created 1 atoms
  using lattice units in orthogonal box = (68.195723 16.754678 64.480601) to (114.37642 59.982022 107.90473)
  create_atoms CPU = 0.000 seconds
create_atoms 1 single 92.06742 32.4645 71.85952045845272
Created 1 atoms
  using lattice units in orthogonal box = (68.195723 16.754678 64.480601) to (114.37642 59.982022 107.90473)
  create_atoms CPU = 0.000 seconds
create_atoms 1 single 94.63248 31.1311 74.27380848137537
Created 1 atoms
  using lattice units in orthogonal box = (68.195723 16.754678 64.480601) to (114.37642 59.982022 107.90473)
  create_atoms CPU = 0.000 seconds
create_atoms 4 single 93.10116000000001 30.311 75.87974876790831
Created 1 atoms
  using lattice units in orthogonal box = (68.195723 16.754678 64.480601) to (114.37642 59.982022 107.90473)
  create_atoms CPU = 0.000 seconds
create_atoms 3 single 96.11498 28.8756 73.69885833810889
Created 1 atoms
  using lattice units in orthogonal box = (68.195723 16.754678 64.480601) to (114.37642 59.982022 107.90473)
  create_atoms CPU = 0.000 seconds
create_atoms 3 single 97.21506 31.13 74.15791381088826
Created 1 atoms
  using lattice units in orthogonal box = (68.195723 16.754678 64.480601) to (114.37642 59.982022 107.90473)
  create_atoms CPU = 0.000 seconds
create_atoms 1 single 96.30316 30.6328 71.5419911747851
Created 1 atoms
  using lattice units in orthogonal box = (68.195723 16.754678 64.480601) to (114.37642 59.982022 107.90473)
  create_atoms CPU = 0.000 seconds
create_atoms 1 single 98.90115999999999 29.262 73.57693272206305
Created 1 atoms
  using lattice units in orthogonal box = (68.195723 16.754678 64.480601) to (114.37642 59.982022 107.90473)
  create_atoms CPU = 0.000 seconds
create_atoms 3 single 97.63992 33.015 72.83753879656162
Created 1 atoms
  using lattice units in orthogonal box = (68.195723 16.754678 64.480601) to (114.37642 59.982022 107.90473)
  create_atoms CPU = 0.000 seconds
create_atoms 5 single 99.37895999999999 31.6255 72.12246968481375
Created 1 atoms
  using lattice units in orthogonal box = (68.195723 16.754678 64.480601) to (114.37642 59.982022 107.90473)
  create_atoms CPU = 0.000 seconds
create_atoms 5 single 98.58798 29.3114 75.99262796561605
Created 1 atoms
  using lattice units in orthogonal box = (68.195723 16.754678 64.480601) to (114.37642 59.982022 107.90473)
  create_atoms CPU = 0.000 seconds
create_atoms 1 single 99.86982 32.1264 75.04184939828082
Created 1 atoms
  using lattice units in orthogonal box = (68.195723 16.754678 64.480601) to (114.37642 59.982022 107.90473)
  create_atoms CPU = 0.000 seconds
create_atoms 1 single 101.7115 29.8015 76.11606131805158
Created 1 atoms
  using lattice units in orthogonal box = (68.195723 16.754678 64.480601) to (114.37642 59.982022 107.90473)
  create_atoms CPU = 0.000 seconds
create_atoms 3 single 102.83692 32.2138 75.51477604584528
Created 1 atoms
  using lattice units in orthogonal box = (68.195723 16.754678 64.480601) to (114.37642 59.982022 107.90473)
  create_atoms CPU = 0.000 seconds
create_atoms 1 single 71.82684 37.0667 73.89777902578798
Created 1 atoms
  using lattice units in orthogonal box = (68.195723 16.754678 64.480601) to (114.37642 59.982022 107.90473)
  create_atoms CPU = 0.000 seconds
create_atoms 5 single 70.48956 38.0601 75.85059919770774
Created 1 atoms
  using lattice units in orthogonal box = (68.195723 16.754678 64.480601) to (114.37642 59.982022 107.90473)
  create_atoms CPU = 0.000 seconds
create_atoms 1 single 73.60604000000001 34.632 73.72589707736391
Created 1 atoms
  using lattice units in orthogonal box = (68.195723 16.754678 64.480601) to (114.37642 59.982022 107.90473)
  create_atoms CPU = 0.000 seconds
create_atoms 2 single 75.00174 34.8164 71.9392294555874
Created 1 atoms
  using lattice units in orthogonal box = (68.195723 16.754678 64.480601) to (114.37642 59.982022 107.90473)
  create_atoms CPU = 0.000 seconds
create_atoms 1 single 73.53620000000001 37.1427 72.03110085959887
Created 1 atoms
  using lattice units in orthogonal box = (68.195723 16.754678 64.480601) to (114.37642 59.982022 107.90473)
  create_atoms CPU = 0.000 seconds
create_atoms 2 single 74.55792000000001 36.612 75.58865512893983
Created 1 atoms
  using lattice units in orthogonal box = (68.195723 16.754678 64.480601) to (114.37642 59.982022 107.90473)
  create_atoms CPU = 0.000 seconds
create_atoms 1 single 76.2699 36.4563 74.29220286532953
Created 1 atoms
  using lattice units in orthogonal box = (68.195723 16.754678 64.480601) to (114.37642 59.982022 107.90473)
  create_atoms CPU = 0.000 seconds
create_atoms 3 single 72.6618 35.1056 75.919553008596
Created 1 atoms
  using lattice units in orthogonal box = (68.195723 16.754678 64.480601) to (114.37642 59.982022 107.90473)
  create_atoms CPU = 0.000 seconds
create_atoms 1 single 77.17836 33.6774 75.11281352435532
Created 1 atoms
  using lattice units in orthogonal box = (68.195723 16.754678 64.480601) to (114.37642 59.982022 107.90473)
  create_atoms CPU = 0.000 seconds
create_atoms 5 single 77.43532 33.6528 72.47769237822351
Created 1 atoms
  using lattice units in orthogonal box = (68.195723 16.754678 64.480601) to (114.37642 59.982022 107.90473)
  create_atoms CPU = 0.000 seconds
create_atoms 3 single 79.71966 35.2129 72.42200664756447
Created 1 atoms
  using lattice units in orthogonal box = (68.195723 16.754678 64.480601) to (114.37642 59.982022 107.90473)
  create_atoms CPU = 0.000 seconds
create_atoms 1 single 77.03196 36.686 71.87972412607452
Created 1 atoms
  using lattice units in orthogonal box = (68.195723 16.754678 64.480601) to (114.37642 59.982022 107.90473)
  create_atoms CPU = 0.000 seconds
create_atoms 1 single 79.86512 37.7594 73.74871415472781
Created 1 atoms
  using lattice units in orthogonal box = (68.195723 16.754678 64.480601) to (114.37642 59.982022 107.90473)
  create_atoms CPU = 0.000 seconds
create_atoms 3 single 78.78656000000001 35.4865 74.25541409742121
Created 1 atoms
  using lattice units in orthogonal box = (68.195723 16.754678 64.480601) to (114.37642 59.982022 107.90473)
  create_atoms CPU = 0.000 seconds
create_atoms 3 single 81.54958 35.6021 74.87087209169056
Created 1 atoms
  using lattice units in orthogonal box = (68.195723 16.754678 64.480601) to (114.37642 59.982022 107.90473)
  create_atoms CPU = 0.000 seconds
create_atoms 1 single 79.03384000000001 37.6388 76.16440939828081
Created 1 atoms
  using lattice units in orthogonal box = (68.195723 16.754678 64.480601) to (114.37642 59.982022 107.90473)
  create_atoms CPU = 0.000 seconds
create_atoms 3 single 82.12478 34.035 73.32644744985674
Created 1 atoms
  using lattice units in orthogonal box = (68.195723 16.754678 64.480601) to (114.37642 59.982022 107.90473)
  create_atoms CPU = 0.000 seconds
create_atoms 1 single 84.65438 34.5699 72.89020905444127
Created 1 atoms
  using lattice units in orthogonal box = (68.195723 16.754678 64.480601) to (114.37642 59.982022 107.90473)
  create_atoms CPU = 0.000 seconds
create_atoms 1 single 82.41068 36.6018 72.74044057306591
Created 1 atoms
  using lattice units in orthogonal box = (68.195723 16.754678 64.480601) to (114.37642 59.982022 107.90473)
  create_atoms CPU = 0.000 seconds
create_atoms 5 single 84.55424000000001 35.2075 75.41355667621778
Created 1 atoms
  using lattice units in orthogonal box = (68.195723 16.754678 64.480601) to (114.37642 59.982022 107.90473)
  create_atoms CPU = 0.000 seconds
create_atoms 3 single 85.34958 37.2817 74.29692710601721
Created 1 atoms
  using lattice units in orthogonal box = (68.195723 16.754678 64.480601) to (114.37642 59.982022 107.90473)
  create_atoms CPU = 0.000 seconds
create_atoms 1 single 83.13858 37.9208 75.34832194842407
Created 1 atoms
  using lattice units in orthogonal box = (68.195723 16.754678 64.480601) to (114.37642 59.982022 107.90473)
  create_atoms CPU = 0.000 seconds
create_atoms 1 single 86.64918 36.5758 72.36953742120345
Created 1 atoms
  using lattice units in orthogonal box = (68.195723 16.754678 64.480601) to (114.37642 59.982022 107.90473)
  create_atoms CPU = 0.000 seconds
create_atoms 3 single 87.1387 35.477 74.84403438395415
Created 1 atoms
  using lattice units in orthogonal box = (68.195723 16.754678 64.480601) to (114.37642 59.982022 107.90473)
  create_atoms CPU = 0.000 seconds
create_atoms 1 single 88.14178 33.7033 73.4696824068768
Created 1 atoms
  using lattice units in orthogonal box = (68.195723 16.754678 64.480601) to (114.37642 59.982022 107.90473)
  create_atoms CPU = 0.000 seconds
create_atoms 1 single 89.62198 36.2661 74.61556206303726
Created 1 atoms
  using lattice units in orthogonal box = (68.195723 16.754678 64.480601) to (114.37642 59.982022 107.90473)
  create_atoms CPU = 0.000 seconds
create_atoms 5 single 90.29038 37.4234 72.17453684813754
Created 1 atoms
  using lattice units in orthogonal box = (68.195723 16.754678 64.480601) to (114.37642 59.982022 107.90473)
  create_atoms CPU = 0.000 seconds
create_atoms 2 single 88.07192 37.8451 75.77712217765044
Created 1 atoms
  using lattice units in orthogonal box = (68.195723 16.754678 64.480601) to (114.37642 59.982022 107.90473)
  create_atoms CPU = 0.000 seconds
create_atoms 4 single 91.17718 34.7122 73.13044171919772
Created 1 atoms
  using lattice units in orthogonal box = (68.195723 16.754678 64.480601) to (114.37642 59.982022 107.90473)
  create_atoms CPU = 0.000 seconds
create_atoms 3 single 93.98502 33.8951 73.84319896848137
Created 1 atoms
  using lattice units in orthogonal box = (68.195723 16.754678 64.480601) to (114.37642 59.982022 107.90473)
  create_atoms CPU = 0.000 seconds
create_atoms 1 single 93.47166 36.3191 72.72707197707737
Created 1 atoms
  using lattice units in orthogonal box = (68.195723 16.754678 64.480601) to (114.37642 59.982022 107.90473)
  create_atoms CPU = 0.000 seconds
create_atoms 2 single 94.74282000000001 35.6021 75.78566601719199
Created 1 atoms
  using lattice units in orthogonal box = (68.195723 16.754678 64.480601) to (114.37642 59.982022 107.90473)
  create_atoms CPU = 0.000 seconds
create_atoms 4 single 92.29458 34.6323 75.87502452722063
Created 1 atoms
  using lattice units in orthogonal box = (68.195723 16.754678 64.480601) to (114.37642 59.982022 107.90473)
  create_atoms CPU = 0.000 seconds
create_atoms 4 single 92.4723 37.1684 74.84654727793698
Created 1 atoms
  using lattice units in orthogonal box = (68.195723 16.754678 64.480601) to (114.37642 59.982022 107.90473)
  create_atoms CPU = 0.000 seconds
create_atoms 1 single 96.83234 33.6573 74.91148045845273
Created 1 atoms
  using lattice units in orthogonal box = (68.195723 16.754678 64.480601) to (114.37642 59.982022 107.90473)
  create_atoms CPU = 0.000 seconds
create_atoms 1 single 96.14902000000001 35.3001 72.3038001146132
Created 1 atoms
  using lattice units in orthogonal box = (68.195723 16.754678 64.480601) to (114.37642 59.982022 107.90473)
  create_atoms CPU = 0.000 seconds
create_atoms 1 single 96.5585 36.5891 74.78774555873926
Created 1 atoms
  using lattice units in orthogonal box = (68.195723 16.754678 64.480601) to (114.37642 59.982022 107.90473)
  create_atoms CPU = 0.000 seconds
create_atoms 2 single 98.3262 37.8352 73.67905673352436
Created 1 atoms
  using lattice units in orthogonal box = (68.195723 16.754678 64.480601) to (114.37642 59.982022 107.90473)
  create_atoms CPU = 0.000 seconds
create_atoms 1 single 100.17458 37.0879 72.59167724928368
Created 1 atoms
  using lattice units in orthogonal box = (68.195723 16.754678 64.480601) to (114.37642 59.982022 107.90473)
  create_atoms CPU = 0.000 seconds
create_atoms 1 single 99.30908 35.224 74.5587706590258
Created 1 atoms
  using lattice units in orthogonal box = (68.195723 16.754678 64.480601) to (114.37642 59.982022 107.90473)
  create_atoms CPU = 0.000 seconds
create_atoms 1 single 100.89620000000001 37.682 76.00700171919772
Created 1 atoms
  using lattice units in orthogonal box = (68.195723 16.754678 64.480601) to (114.37642 59.982022 107.90473)
  create_atoms CPU = 0.000 seconds
create_atoms 1 single 101.319 33.8858 73.52878567335244
Created 1 atoms
  using lattice units in orthogonal box = (68.195723 16.754678 64.480601) to (114.37642 59.982022 107.90473)
  create_atoms CPU = 0.000 seconds
create_atoms 2 single 102.57386 36.2935 74.66049260744987
Created 1 atoms
  using lattice units in orthogonal box = (68.195723 16.754678 64.480601) to (114.37642 59.982022 107.90473)
  create_atoms CPU = 0.000 seconds
create_atoms 1 single 71.1409 41.0096 75.87080286532952
Created 1 atoms
  using lattice units in orthogonal box = (68.195723 16.754678 64.480601) to (114.37642 59.982022 107.90473)
  create_atoms CPU = 0.000 seconds
create_atoms 1 single 72.88028 42.625 74.40146349570202
Created 1 atoms
  using lattice units in orthogonal box = (68.195723 16.754678 64.480601) to (114.37642 59.982022 107.90473)
  create_atoms CPU = 0.000 seconds
create_atoms 5 single 71.68858 39.9821 73.4827494555874
Created 1 atoms
  using lattice units in orthogonal box = (68.195723 16.754678 64.480601) to (114.37642 59.982022 107.90473)
  create_atoms CPU = 0.000 seconds
create_atoms 2 single 74.25888 38.9231 74.02503197707738
Created 1 atoms
  using lattice units in orthogonal box = (68.195723 16.754678 64.480601) to (114.37642 59.982022 107.90473)
  create_atoms CPU = 0.000 seconds
create_atoms 1 single 74.26812 41.1907 72.47920011461318
Created 1 atoms
  using lattice units in orthogonal box = (68.195723 16.754678 64.480601) to (114.37642 59.982022 107.90473)
  create_atoms CPU = 0.000 seconds
create_atoms 4 single 75.65082 41.3066 75.31625742120345
Created 1 atoms
  using lattice units in orthogonal box = (68.195723 16.754678 64.480601) to (114.37642 59.982022 107.90473)
  create_atoms CPU = 0.000 seconds
create_atoms 1 single 73.3646 38.8 76.27889684813755
Created 1 atoms
  using lattice units in orthogonal box = (68.195723 16.754678 64.480601) to (114.37642 59.982022 107.90473)
  create_atoms CPU = 0.000 seconds
create_atoms 3 single 76.35866 41.0826 71.48620492836677
Created 1 atoms
  using lattice units in orthogonal box = (68.195723 16.754678 64.480601) to (114.37642 59.982022 107.90473)
  create_atoms CPU = 0.000 seconds
create_atoms 2 single 77.17132 42.2039 73.746201260745
Created 1 atoms
  using lattice units in orthogonal box = (68.195723 16.754678 64.480601) to (114.37642 59.982022 107.90473)
  create_atoms CPU = 0.000 seconds
create_atoms 1 single 79.43696 40.7561 73.28141638968482
Created 1 atoms
  using lattice units in orthogonal box = (68.195723 16.754678 64.480601) to (114.37642 59.982022 107.90473)
  create_atoms CPU = 0.000 seconds
create_atoms 1 single 76.81402 39.2145 73.49943507163324
Created 1 atoms
  using lattice units in orthogonal box = (68.195723 16.754678 64.480601) to (114.37642 59.982022 107.90473)
  create_atoms CPU = 0.000 seconds
create_atoms 5 single 81.1914 39.6525 76.07484985673354
Created 1 atoms
  using lattice units in orthogonal box = (68.195723 16.754678 64.480601) to (114.37642 59.982022 107.90473)
  create_atoms CPU = 0.000 seconds
create_atoms 4 single 78.43638 40.6155 75.95996034383955
Created 1 atoms
  using lattice units in orthogonal box = (68.195723 16.754678 64.480601) to (114.37642 59.982022 107.90473)
  create_atoms CPU = 0.000 seconds
create_atoms 4 single 80.10226 42.5956 75.45004389684814
Created 1 atoms
  using lattice units in orthogonal box = (68.195723 16.754678 64.480601) to (114.37642 59.982022 107.90473)
  create_atoms CPU = 0.000 seconds
create_atoms 2 single 82.31494 41.3286 74.84413489971347
Created 1 atoms
  using lattice units in orthogonal box = (68.195723 16.754678 64.480601) to (114.37642 59.982022 107.90473)
  create_atoms CPU = 0.000 seconds
create_atoms 2 single 81.57624 39.1731 72.8162294555874
Created 1 atoms
  using lattice units in orthogonal box = (68.195723 16.754678 64.480601) to (114.37642 59.982022 107.90473)
  create_atoms CPU = 0.000 seconds
create_atoms 4 single 84.3377 38.8988 72.38893696275072
Created 1 atoms
  using lattice units in orthogonal box = (68.195723 16.754678 64.480601) to (114.37642 59.982022 107.90473)
  create_atoms CPU = 0.000 seconds
create_atoms 1 single 82.52706 41.4257 72.28329489971348
Created 1 atoms
  using lattice units in orthogonal box = (68.195723 16.754678 64.480601) to (114.37642 59.982022 107.90473)
  create_atoms CPU = 0.000 seconds
create_atoms 3 single 83.80326000000001 43.175 74.20917684813755
Created 1 atoms
  using lattice units in orthogonal box = (68.195723 16.754678 64.480601) to (114.37642 59.982022 107.90473)
  create_atoms CPU = 0.000 seconds
create_atoms 1 single 85.6406 41.9581 72.84377077363898
Created 1 atoms
  using lattice units in orthogonal box = (68.195723 16.754678 64.480601) to (114.37642 59.982022 107.90473)
  create_atoms CPU = 0.000 seconds
create_atoms 1 single 84.81778 40.2049 74.87187724928368
Created 1 atoms
  using lattice units in orthogonal box = (68.195723 16.754678 64.480601) to (114.37642 59.982022 107.90473)
  create_atoms CPU = 0.000 seconds
create_atoms 3 single 86.2878 42.6567 75.34410028653295
Created 1 atoms
  using lattice units in orthogonal box = (68.195723 16.754678 64.480601) to (114.37642 59.982022 107.90473)
  create_atoms CPU = 0.000 seconds
create_atoms 4 single 88.60092 38.898 73.30845512893984
Created 1 atoms
  using lattice units in orthogonal box = (68.195723 16.754678 64.480601) to (114.37642 59.982022 107.90473)
  create_atoms CPU = 0.000 seconds
create_atoms 4 single 88.41402 41.5253 72.53599151862464
Created 1 atoms
  using lattice units in orthogonal box = (68.195723 16.754678 64.480601) to (114.37642 59.982022 107.90473)
  create_atoms CPU = 0.000 seconds
create_atoms 1 single 90.74066 38.8503 75.95212011461318
Created 1 atoms
  using lattice units in orthogonal box = (68.195723 16.754678 64.480601) to (114.37642 59.982022 107.90473)
  create_atoms CPU = 0.000 seconds
create_atoms 1 single 87.91524 40.5581 75.23162315186248
Created 1 atoms
  using lattice units in orthogonal box = (68.195723 16.754678 64.480601) to (114.37642 59.982022 107.90473)
  create_atoms CPU = 0.000 seconds
create_atoms 3 single 90.3392 41.5585 75.00888022922636
Created 1 atoms
  using lattice units in orthogonal box = (68.195723 16.754678 64.480601) to (114.37642 59.982022 107.90473)
  create_atoms CPU = 0.000 seconds
create_atoms 2 single 94.5124 38.4776 74.3972418338109
Created 1 atoms
  using lattice units in orthogonal box = (68.195723 16.754678 64.480601) to (114.37642 59.982022 107.90473)
  create_atoms CPU = 0.000 seconds
create_atoms 1 single 91.73062 39.9479 73.79394624641834
Created 1 atoms
  using lattice units in orthogonal box = (68.195723 16.754678 64.480601) to (114.37642 59.982022 107.90473)
  create_atoms CPU = 0.000 seconds
create_atoms 2 single 91.4755 41.6623 71.91852320916905
Created 1 atoms
  using lattice units in orthogonal box = (68.195723 16.754678 64.480601) to (114.37642 59.982022 107.90473)
  create_atoms CPU = 0.000 seconds
create_atoms 1 single 94.85646 41.1203 74.13580034383955
Created 1 atoms
  using lattice units in orthogonal box = (68.195723 16.754678 64.480601) to (114.37642 59.982022 107.90473)
  create_atoms CPU = 0.000 seconds
create_atoms 1 single 92.98192 42.6405 75.46803621776505
Created 1 atoms
  using lattice units in orthogonal box = (68.195723 16.754678 64.480601) to (114.37642 59.982022 107.90473)
  create_atoms CPU = 0.000 seconds
create_atoms 1 single 95.56158 38.5913 72.3569729512894
Created 1 atoms
  using lattice units in orthogonal box = (68.195723 16.754678 64.480601) to (114.37642 59.982022 107.90473)
  create_atoms CPU = 0.000 seconds
create_atoms 1 single 98.42045999999999 39.7139 71.64703014326648
Created 1 atoms
  using lattice units in orthogonal box = (68.195723 16.754678 64.480601) to (114.37642 59.982022 107.90473)
  create_atoms CPU = 0.000 seconds
create_atoms 1 single 99.90428 40.2776 74.51253340974213
Created 1 atoms
  using lattice units in orthogonal box = (68.195723 16.754678 64.480601) to (114.37642 59.982022 107.90473)
  create_atoms CPU = 0.000 seconds
create_atoms 3 single 97.02114 40.9215 73.07053432664758
Created 1 atoms
  using lattice units in orthogonal box = (68.195723 16.754678 64.480601) to (114.37642 59.982022 107.90473)
  create_atoms CPU = 0.000 seconds
create_atoms 1 single 99.26794 42.7653 72.89362659025788
Created 1 atoms
  using lattice units in orthogonal box = (68.195723 16.754678 64.480601) to (114.37642 59.982022 107.90473)
  create_atoms CPU = 0.000 seconds
create_atoms 1 single 97.5359 39.3547 75.4521547277937
Created 1 atoms
  using lattice units in orthogonal box = (68.195723 16.754678 64.480601) to (114.37642 59.982022 107.90473)
  create_atoms CPU = 0.000 seconds
create_atoms 1 single 98.21668000000001 42.5179 75.5483483094556
Created 1 atoms
  using lattice units in orthogonal box = (68.195723 16.754678 64.480601) to (114.37642 59.982022 107.90473)
  create_atoms CPU = 0.000 seconds
create_atoms 3 single 100.93378 42.6566 75.63378670487107
Created 1 atoms
  using lattice units in orthogonal box = (68.195723 16.754678 64.480601) to (114.37642 59.982022 107.90473)
  create_atoms CPU = 0.000 seconds
create_atoms 2 single 102.28386 41.8831 74.24234704871061
Created 1 atoms
  using lattice units in orthogonal box = (68.195723 16.754678 64.480601) to (114.37642 59.982022 107.90473)
  create_atoms CPU = 0.000 seconds
create_atoms 1 single 102.42592 39.0005 74.27591931232092
Created 1 atoms
  using lattice units in orthogonal box = (68.195723 16.754678 64.480601) to (114.37642 59.982022 107.90473)
  create_atoms CPU = 0.000 seconds
create_atoms 1 single 75.62376 46.6588 71.64451724928368
Created 1 atoms
  using lattice units in orthogonal box = (68.195723 16.754678 64.480601) to (114.37642 59.982022 107.90473)
  create_atoms CPU = 0.000 seconds
create_atoms 4 single 72.32598 43.353 71.56390361031521
Created 1 atoms
  using lattice units in orthogonal box = (68.195723 16.754678 64.480601) to (114.37642 59.982022 107.90473)
  create_atoms CPU = 0.000 seconds
create_atoms 2 single 73.25136 45.8356 72.20941581661891
Created 1 atoms
  using lattice units in orthogonal box = (68.195723 16.754678 64.480601) to (114.37642 59.982022 107.90473)
  create_atoms CPU = 0.000 seconds
create_atoms 1 single 75.42328 44.3004 73.96321478510029
Created 1 atoms
  using lattice units in orthogonal box = (68.195723 16.754678 64.480601) to (114.37642 59.982022 107.90473)
  create_atoms CPU = 0.000 seconds
create_atoms 1 single 74.69186 47.9439 73.91969146131807
Created 1 atoms
  using lattice units in orthogonal box = (68.195723 16.754678 64.480601) to (114.37642 59.982022 107.90473)
  create_atoms CPU = 0.000 seconds
create_atoms 1 single 73.22608000000001 45.644 74.89650361031521
Created 1 atoms
  using lattice units in orthogonal box = (68.195723 16.754678 64.480601) to (114.37642 59.982022 107.90473)
  create_atoms CPU = 0.000 seconds
create_atoms 2 single 80.50102 45.9814 71.7368912320917
Created 1 atoms
  using lattice units in orthogonal box = (68.195723 16.754678 64.480601) to (114.37642 59.982022 107.90473)
  create_atoms CPU = 0.000 seconds
create_atoms 4 single 78.11304 44.5104 73.24744206303725
Created 1 atoms
  using lattice units in orthogonal box = (68.195723 16.754678 64.480601) to (114.37642 59.982022 107.90473)
  create_atoms CPU = 0.000 seconds
create_atoms 1 single 80.92066000000001 43.515 73.0788771346705
Created 1 atoms
  using lattice units in orthogonal box = (68.195723 16.754678 64.480601) to (114.37642 59.982022 107.90473)
  create_atoms CPU = 0.000 seconds
create_atoms 2 single 78.3982 47.6133 72.1406630372493
Created 1 atoms
  using lattice units in orthogonal box = (68.195723 16.754678 64.480601) to (114.37642 59.982022 107.90473)
  create_atoms CPU = 0.000 seconds
create_atoms 4 single 77.5354 46.6746 74.35703553008597
Created 1 atoms
  using lattice units in orthogonal box = (68.195723 16.754678 64.480601) to (114.37642 59.982022 107.90473)
  create_atoms CPU = 0.000 seconds
create_atoms 4 single 80.25062000000001 46.2135 73.98341845272208
Created 1 atoms
  using lattice units in orthogonal box = (68.195723 16.754678 64.480601) to (114.37642 59.982022 107.90473)
  create_atoms CPU = 0.000 seconds
create_atoms 1 single 82.32542000000001 44.5059 75.8967359312321
Created 1 atoms
  using lattice units in orthogonal box = (68.195723 16.754678 64.480601) to (114.37642 59.982022 107.90473)
  create_atoms CPU = 0.000 seconds
create_atoms 2 single 85.1864 46.2748 71.50791633237824
Created 1 atoms
  using lattice units in orthogonal box = (68.195723 16.754678 64.480601) to (114.37642 59.982022 107.90473)
  create_atoms CPU = 0.000 seconds
create_atoms 2 single 85.67576000000001 44.7489 73.64880148997135
Created 1 atoms
  using lattice units in orthogonal box = (68.195723 16.754678 64.480601) to (114.37642 59.982022 107.90473)
  create_atoms CPU = 0.000 seconds
create_atoms 5 single 83.11378 45.71 73.605881260745
Created 1 atoms
  using lattice units in orthogonal box = (68.195723 16.754678 64.480601) to (114.37642 59.982022 107.90473)
  create_atoms CPU = 0.000 seconds
create_atoms 1 single 83.11212 47.4973 75.77913249283668
Created 1 atoms
  using lattice units in orthogonal box = (68.195723 16.754678 64.480601) to (114.37642 59.982022 107.90473)
  create_atoms CPU = 0.000 seconds
create_atoms 1 single 85.94258 47.2321 74.94374601719198
Created 1 atoms
  using lattice units in orthogonal box = (68.195723 16.754678 64.480601) to (114.37642 59.982022 107.90473)
  create_atoms CPU = 0.000 seconds
create_atoms 1 single 83.41572 47.8484 71.99421157593123
Created 1 atoms
  using lattice units in orthogonal box = (68.195723 16.754678 64.480601) to (114.37642 59.982022 107.90473)
  create_atoms CPU = 0.000 seconds
create_atoms 4 single 85.4332 44.8632 76.15425730659027
Created 1 atoms
  using lattice units in orthogonal box = (68.195723 16.754678 64.480601) to (114.37642 59.982022 107.90473)
  create_atoms CPU = 0.000 seconds
create_atoms 1 single 88.36036 43.6332 74.55897169054442
Created 1 atoms
  using lattice units in orthogonal box = (68.195723 16.754678 64.480601) to (114.37642 59.982022 107.90473)
  create_atoms CPU = 0.000 seconds
create_atoms 1 single 90.53892 43.7588 73.16974338108884
Created 1 atoms
  using lattice units in orthogonal box = (68.195723 16.754678 64.480601) to (114.37642 59.982022 107.90473)
  create_atoms CPU = 0.000 seconds
create_atoms 1 single 87.80272000000001 46.4619 73.32403507163325
Created 1 atoms
  using lattice units in orthogonal box = (68.195723 16.754678 64.480601) to (114.37642 59.982022 107.90473)
  create_atoms CPU = 0.000 seconds
create_atoms 1 single 90.48724 47.2915 72.88458017191978
Created 1 atoms
  using lattice units in orthogonal box = (68.195723 16.754678 64.480601) to (114.37642 59.982022 107.90473)
  create_atoms CPU = 0.000 seconds
create_atoms 1 single 90.80398 45.7655 75.35636320916906
Created 1 atoms
  using lattice units in orthogonal box = (68.195723 16.754678 64.480601) to (114.37642 59.982022 107.90473)
  create_atoms CPU = 0.000 seconds
create_atoms 3 single 89.02364 47.5653 75.81310681948425
Created 1 atoms
  using lattice units in orthogonal box = (68.195723 16.754678 64.480601) to (114.37642 59.982022 107.90473)
  create_atoms CPU = 0.000 seconds
create_atoms 1 single 93.33672 43.6428 72.7787370773639
Created 1 atoms
  using lattice units in orthogonal box = (68.195723 16.754678 64.480601) to (114.37642 59.982022 107.90473)
  create_atoms CPU = 0.000 seconds
create_atoms 2 single 95.46566 43.9345 75.33093272206305
Created 1 atoms
  using lattice units in orthogonal box = (68.195723 16.754678 64.480601) to (114.37642 59.982022 107.90473)
  create_atoms CPU = 0.000 seconds
create_atoms 3 single 91.49616 45.6364 71.57717169054443
Created 1 atoms
  using lattice units in orthogonal box = (68.195723 16.754678 64.480601) to (114.37642 59.982022 107.90473)
  create_atoms CPU = 0.000 seconds
create_atoms 1 single 94.54636 46.0682 71.95762383954155
Created 1 atoms
  using lattice units in orthogonal box = (68.195723 16.754678 64.480601) to (114.37642 59.982022 107.90473)
  create_atoms CPU = 0.000 seconds
create_atoms 2 single 94.82388 48.0012 73.98583083094557
Created 1 atoms
  using lattice units in orthogonal box = (68.195723 16.754678 64.480601) to (114.37642 59.982022 107.90473)
  create_atoms CPU = 0.000 seconds
create_atoms 1 single 93.33444 45.9408 74.46770338108884
Created 1 atoms
  using lattice units in orthogonal box = (68.195723 16.754678 64.480601) to (114.37642 59.982022 107.90473)
  create_atoms CPU = 0.000 seconds
create_atoms 2 single 96.27716 45.9422 74.58209031518625
Created 1 atoms
  using lattice units in orthogonal box = (68.195723 16.754678 64.480601) to (114.37642 59.982022 107.90473)
  create_atoms CPU = 0.000 seconds
create_atoms 1 single 96.2385 43.4905 72.8970441260745
Created 1 atoms
  using lattice units in orthogonal box = (68.195723 16.754678 64.480601) to (114.37642 59.982022 107.90473)
  create_atoms CPU = 0.000 seconds
create_atoms 1 single 98.771 45.2538 74.29220286532953
Created 1 atoms
  using lattice units in orthogonal box = (68.195723 16.754678 64.480601) to (114.37642 59.982022 107.90473)
  create_atoms CPU = 0.000 seconds
create_atoms 1 single 97.20374 47.738 73.03434865329514
Created 1 atoms
  using lattice units in orthogonal box = (68.195723 16.754678 64.480601) to (114.37642 59.982022 107.90473)
  create_atoms CPU = 0.000 seconds
create_atoms 1 single 100.77676 47.5014 75.66112699140403
Created 1 atoms
  using lattice units in orthogonal box = (68.195723 16.754678 64.480601) to (114.37642 59.982022 107.90473)
  create_atoms CPU = 0.000 seconds
create_atoms 1 single 101.8353 44.8487 74.75357020057308
Created 1 atoms
  using lattice units in orthogonal box = (68.195723 16.754678 64.480601) to (114.37642 59.982022 107.90473)
  create_atoms CPU = 0.000 seconds
create_atoms 3 single 75.47394 49.6836 76.01062028653295
Created 1 atoms
  using lattice units in orthogonal box = (68.195723 16.754678 64.480601) to (114.37642 59.982022 107.90473)
  create_atoms CPU = 0.000 seconds
create_atoms 4 single 76.68432 51.6698 74.79558578796562
Created 1 atoms
  using lattice units in orthogonal box = (68.195723 16.754678 64.480601) to (114.37642 59.982022 107.90473)
  create_atoms CPU = 0.000 seconds
create_atoms 1 single 78.78642 50.2338 71.5378700286533
Created 1 atoms
  using lattice units in orthogonal box = (68.195723 16.754678 64.480601) to (114.37642 59.982022 107.90473)
  create_atoms CPU = 0.000 seconds
create_atoms 2 single 79.79336 48.8866 74.69919117478511
Created 1 atoms
  using lattice units in orthogonal box = (68.195723 16.754678 64.480601) to (114.37642 59.982022 107.90473)
  create_atoms CPU = 0.000 seconds
create_atoms 1 single 76.89564 49.4007 73.06952916905445
Created 1 atoms
  using lattice units in orthogonal box = (68.195723 16.754678 64.480601) to (114.37642 59.982022 107.90473)
  create_atoms CPU = 0.000 seconds
create_atoms 1 single 79.28664 51.6468 74.1003182808023
Created 1 atoms
  using lattice units in orthogonal box = (68.195723 16.754678 64.480601) to (114.37642 59.982022 107.90473)
  create_atoms CPU = 0.000 seconds
create_atoms 1 single 78.08696 49.0251 76.14058716332379
Created 1 atoms
  using lattice units in orthogonal box = (68.195723 16.754678 64.480601) to (114.37642 59.982022 107.90473)
  create_atoms CPU = 0.000 seconds
create_atoms 1 single 82.24432 50.3793 75.73289524355302
Created 1 atoms
  using lattice units in orthogonal box = (68.195723 16.754678 64.480601) to (114.37642 59.982022 107.90473)
  create_atoms CPU = 0.000 seconds
create_atoms 1 single 81.23904 48.578 73.05093375358167
Created 1 atoms
  using lattice units in orthogonal box = (68.195723 16.754678 64.480601) to (114.37642 59.982022 107.90473)
  create_atoms CPU = 0.000 seconds
create_atoms 1 single 81.70678000000001 51.7656 72.99273512893984
Created 1 atoms
  using lattice units in orthogonal box = (68.195723 16.754678 64.480601) to (114.37642 59.982022 107.90473)
  create_atoms CPU = 0.000 seconds
create_atoms 1 single 84.2193 51.1033 71.78483724928367
Created 1 atoms
  using lattice units in orthogonal box = (68.195723 16.754678 64.480601) to (114.37642 59.982022 107.90473)
  create_atoms CPU = 0.000 seconds
create_atoms 1 single 84.2593 49.911 74.27310487106017
Created 1 atoms
  using lattice units in orthogonal box = (68.195723 16.754678 64.480601) to (114.37642 59.982022 107.90473)
  create_atoms CPU = 0.000 seconds
create_atoms 3 single 84.11458 53.0581 74.56128355300861
Created 1 atoms
  using lattice units in orthogonal box = (68.195723 16.754678 64.480601) to (114.37642 59.982022 107.90473)
  create_atoms CPU = 0.000 seconds
create_atoms 2 single 86.1496 51.9529 74.18465100286534
Created 1 atoms
  using lattice units in orthogonal box = (68.195723 16.754678 64.480601) to (114.37642 59.982022 107.90473)
  create_atoms CPU = 0.000 seconds
create_atoms 2 single 86.36382 48.9744 73.20391873925502
Created 1 atoms
  using lattice units in orthogonal box = (68.195723 16.754678 64.480601) to (114.37642 59.982022 107.90473)
  create_atoms CPU = 0.000 seconds
create_atoms 2 single 87.92986 48.6181 71.79428573065903
Created 1 atoms
  using lattice units in orthogonal box = (68.195723 16.754678 64.480601) to (114.37642 59.982022 107.90473)
  create_atoms CPU = 0.000 seconds
create_atoms 1 single 87.6557 51.1766 72.66636045845273
Created 1 atoms
  using lattice units in orthogonal box = (68.195723 16.754678 64.480601) to (114.37642 59.982022 107.90473)
  create_atoms CPU = 0.000 seconds
create_atoms 1 single 89.88212 49.3802 74.56842017191978
Created 1 atoms
  using lattice units in orthogonal box = (68.195723 16.754678 64.480601) to (114.37642 59.982022 107.90473)
  create_atoms CPU = 0.000 seconds
create_atoms 1 single 90.23638 50.1837 71.95893054441261
Created 1 atoms
  using lattice units in orthogonal box = (68.195723 16.754678 64.480601) to (114.37642 59.982022 107.90473)
  create_atoms CPU = 0.000 seconds
create_atoms 3 single 91.29574 51.9073 74.10082085959887
Created 1 atoms
  using lattice units in orthogonal box = (68.195723 16.754678 64.480601) to (114.37642 59.982022 107.90473)
  create_atoms CPU = 0.000 seconds
create_atoms 1 single 87.55272000000001 50.0215 75.86557604584527
Created 1 atoms
  using lattice units in orthogonal box = (68.195723 16.754678 64.480601) to (114.37642 59.982022 107.90473)
  create_atoms CPU = 0.000 seconds
create_atoms 1 single 89.63694 52.1587 75.63368618911176
Created 1 atoms
  using lattice units in orthogonal box = (68.195723 16.754678 64.480601) to (114.37642 59.982022 107.90473)
  create_atoms CPU = 0.000 seconds
create_atoms 1 single 92.52696 48.3001 71.62893730659026
Created 1 atoms
  using lattice units in orthogonal box = (68.195723 16.754678 64.480601) to (114.37642 59.982022 107.90473)
  create_atoms CPU = 0.000 seconds
create_atoms 1 single 93.39748 50.7228 73.39329042979944
Created 1 atoms
  using lattice units in orthogonal box = (68.195723 16.754678 64.480601) to (114.37642 59.982022 107.90473)
  create_atoms CPU = 0.000 seconds
create_atoms 2 single 92.65982 48.6452 74.68150040114614
Created 1 atoms
  using lattice units in orthogonal box = (68.195723 16.754678 64.480601) to (114.37642 59.982022 107.90473)
  create_atoms CPU = 0.000 seconds
create_atoms 1 single 94.65528 52.6065 75.66946979942693
Created 1 atoms
  using lattice units in orthogonal box = (68.195723 16.754678 64.480601) to (114.37642 59.982022 107.90473)
  create_atoms CPU = 0.000 seconds
create_atoms 1 single 95.38974 49.7156 76.06037558739257
Created 1 atoms
  using lattice units in orthogonal box = (68.195723 16.754678 64.480601) to (114.37642 59.982022 107.90473)
  create_atoms CPU = 0.000 seconds
create_atoms 2 single 97.40264 51.5285 75.7849624068768
Created 1 atoms
  using lattice units in orthogonal box = (68.195723 16.754678 64.480601) to (114.37642 59.982022 107.90473)
  create_atoms CPU = 0.000 seconds
create_atoms 3 single 96.16568000000001 50.0082 73.77927094555875
Created 1 atoms
  using lattice units in orthogonal box = (68.195723 16.754678 64.480601) to (114.37642 59.982022 107.90473)
  create_atoms CPU = 0.000 seconds
create_atoms 1 single 97.96418000000001 48.3009 75.89764057306591
Created 1 atoms
  using lattice units in orthogonal box = (68.195723 16.754678 64.480601) to (114.37642 59.982022 107.90473)
  create_atoms CPU = 0.000 seconds
create_atoms 3 single 79.30080000000001 53.8008 75.92256848137536
Created 1 atoms
  using lattice units in orthogonal box = (68.195723 16.754678 64.480601) to (114.37642 59.982022 107.90473)
  create_atoms CPU = 0.000 seconds
create_atoms 1 single 82.08036 53.3953 75.76315048710602
Created 1 atoms
  using lattice units in orthogonal box = (68.195723 16.754678 64.480601) to (114.37642 59.982022 107.90473)
  create_atoms CPU = 0.000 seconds
create_atoms 1 single 87.35086 53.7632 76.09384733524357
Created 1 atoms
  using lattice units in orthogonal box = (68.195723 16.754678 64.480601) to (114.37642 59.982022 107.90473)
  create_atoms CPU = 0.000 seconds
create_atoms 1 single 80.27136 22.9583 81.06937742120346
Created 1 atoms
  using lattice units in orthogonal box = (68.195723 16.754678 64.480601) to (114.37642 59.982022 107.90473)
  create_atoms CPU = 0.000 seconds
create_atoms 1 single 81.95756 22.0105 78.81229604584529
Created 1 atoms
  using lattice units in orthogonal box = (68.195723 16.754678 64.480601) to (114.37642 59.982022 107.90473)
  create_atoms CPU = 0.000 seconds
create_atoms 5 single 84.19384000000001 20.2186 80.6348477936963
Created 1 atoms
  using lattice units in orthogonal box = (68.195723 16.754678 64.480601) to (114.37642 59.982022 107.90473)
  create_atoms CPU = 0.000 seconds
create_atoms 1 single 83.5537 22.7206 77.05035530085961
Created 1 atoms
  using lattice units in orthogonal box = (68.195723 16.754678 64.480601) to (114.37642 59.982022 107.90473)
  create_atoms CPU = 0.000 seconds
create_atoms 3 single 84.86408 22.4964 79.75744573065904
Created 1 atoms
  using lattice units in orthogonal box = (68.195723 16.754678 64.480601) to (114.37642 59.982022 107.90473)
  create_atoms CPU = 0.000 seconds
create_atoms 1 single 86.795 22.0881 78.2168406876791
Created 1 atoms
  using lattice units in orthogonal box = (68.195723 16.754678 64.480601) to (114.37642 59.982022 107.90473)
  create_atoms CPU = 0.000 seconds
create_atoms 3 single 87.33508 23.2419 80.53845318051577
Created 1 atoms
  using lattice units in orthogonal box = (68.195723 16.754678 64.480601) to (114.37642 59.982022 107.90473)
  create_atoms CPU = 0.000 seconds
create_atoms 1 single 87.11110000000001 20.6711 80.8659335243553
Created 1 atoms
  using lattice units in orthogonal box = (68.195723 16.754678 64.480601) to (114.37642 59.982022 107.90473)
  create_atoms CPU = 0.000 seconds
create_atoms 1 single 89.8494 19.9973 80.43371575931234
Created 1 atoms
  using lattice units in orthogonal box = (68.195723 16.754678 64.480601) to (114.37642 59.982022 107.90473)
  create_atoms CPU = 0.000 seconds
create_atoms 2 single 89.47586 21.891 77.91016710601721
Created 1 atoms
  using lattice units in orthogonal box = (68.195723 16.754678 64.480601) to (114.37642 59.982022 107.90473)
  create_atoms CPU = 0.000 seconds
create_atoms 1 single 92.37454 21.4044 79.99204951289398
Created 1 atoms
  using lattice units in orthogonal box = (68.195723 16.754678 64.480601) to (114.37642 59.982022 107.90473)
  create_atoms CPU = 0.000 seconds
create_atoms 1 single 89.95414 22.8857 80.47653547277937
Created 1 atoms
  using lattice units in orthogonal box = (68.195723 16.754678 64.480601) to (114.37642 59.982022 107.90473)
  create_atoms CPU = 0.000 seconds
create_atoms 2 single 92.8923 22.7563 76.34171919770775
Created 1 atoms
  using lattice units in orthogonal box = (68.195723 16.754678 64.480601) to (114.37642 59.982022 107.90473)
  create_atoms CPU = 0.000 seconds
create_atoms 3 single 94.73172 19.695 80.68681444126076
Created 1 atoms
  using lattice units in orthogonal box = (68.195723 16.754678 64.480601) to (114.37642 59.982022 107.90473)
  create_atoms CPU = 0.000 seconds
create_atoms 1 single 94.82784 21.7182 78.93462372492837
Created 1 atoms
  using lattice units in orthogonal box = (68.195723 16.754678 64.480601) to (114.37642 59.982022 107.90473)
  create_atoms CPU = 0.000 seconds
create_atoms 1 single 96.26608 23.2778 76.86912538681949
Created 1 atoms
  using lattice units in orthogonal box = (68.195723 16.754678 64.480601) to (114.37642 59.982022 107.90473)
  create_atoms CPU = 0.000 seconds
create_atoms 5 single 96.71972 23.2256 81.10294968481377
Created 1 atoms
  using lattice units in orthogonal box = (68.195723 16.754678 64.480601) to (114.37642 59.982022 107.90473)
  create_atoms CPU = 0.000 seconds
create_atoms 1 single 98.15526000000001 22.0763 79.43197570200574
Created 1 atoms
  using lattice units in orthogonal box = (68.195723 16.754678 64.480601) to (114.37642 59.982022 107.90473)
  create_atoms CPU = 0.000 seconds
create_atoms 1 single 77.13218 24.9875 77.06513111747853
Created 1 atoms
  using lattice units in orthogonal box = (68.195723 16.754678 64.480601) to (114.37642 59.982022 107.90473)
  create_atoms CPU = 0.000 seconds
create_atoms 1 single 73.90598 28.2806 78.40601134670487
Created 1 atoms
  using lattice units in orthogonal box = (68.195723 16.754678 64.480601) to (114.37642 59.982022 107.90473)
  create_atoms CPU = 0.000 seconds
create_atoms 3 single 75.99672 27.4364 77.41854452722063
Created 1 atoms
  using lattice units in orthogonal box = (68.195723 16.754678 64.480601) to (114.37642 59.982022 107.90473)
  create_atoms CPU = 0.000 seconds
create_atoms 3 single 76.57224000000001 27.9242 80.16091598853869
Created 1 atoms
  using lattice units in orthogonal box = (68.195723 16.754678 64.480601) to (114.37642 59.982022 107.90473)
  create_atoms CPU = 0.000 seconds
create_atoms 2 single 78.49736 25.1478 79.89736366762178
Created 1 atoms
  using lattice units in orthogonal box = (68.195723 16.754678 64.480601) to (114.37642 59.982022 107.90473)
  create_atoms CPU = 0.000 seconds
create_atoms 1 single 78.71588 27.7161 79.04076836676218
Created 1 atoms
  using lattice units in orthogonal box = (68.195723 16.754678 64.480601) to (114.37642 59.982022 107.90473)
  create_atoms CPU = 0.000 seconds
create_atoms 1 single 75.67304 25.5586 78.98638934097423
Created 1 atoms
  using lattice units in orthogonal box = (68.195723 16.754678 64.480601) to (114.37642 59.982022 107.90473)
  create_atoms CPU = 0.000 seconds
create_atoms 1 single 79.31008 26.6962 76.55702395415473
Created 1 atoms
  using lattice units in orthogonal box = (68.195723 16.754678 64.480601) to (114.37642 59.982022 107.90473)
  create_atoms CPU = 0.000 seconds
create_atoms 1 single 80.21516 24.4049 78.59970521489971
Created 1 atoms
  using lattice units in orthogonal box = (68.195723 16.754678 64.480601) to (114.37642 59.982022 107.90473)
  create_atoms CPU = 0.000 seconds
create_atoms 2 single 82.607 25.1159 77.91026762177651
Created 1 atoms
  using lattice units in orthogonal box = (68.195723 16.754678 64.480601) to (114.37642 59.982022 107.90473)
  create_atoms CPU = 0.000 seconds
create_atoms 1 single 83.37270000000001 24.3133 80.581976504298
Created 1 atoms
  using lattice units in orthogonal box = (68.195723 16.754678 64.480601) to (114.37642 59.982022 107.90473)
  create_atoms CPU = 0.000 seconds
create_atoms 1 single 81.78641999999999 27.061 79.31778979942693
Created 1 atoms
  using lattice units in orthogonal box = (68.195723 16.754678 64.480601) to (114.37642 59.982022 107.90473)
  create_atoms CPU = 0.000 seconds
create_atoms 1 single 82.21602 27.5635 76.62497260744988
Created 1 atoms
  using lattice units in orthogonal box = (68.195723 16.754678 64.480601) to (114.37642 59.982022 107.90473)
  create_atoms CPU = 0.000 seconds
create_atoms 2 single 81.1316 25.7353 81.13179770773641
Created 1 atoms
  using lattice units in orthogonal box = (68.195723 16.754678 64.480601) to (114.37642 59.982022 107.90473)
  create_atoms CPU = 0.000 seconds
create_atoms 1 single 85.516 24.8861 78.80938108882522
Created 1 atoms
  using lattice units in orthogonal box = (68.195723 16.754678 64.480601) to (114.37642 59.982022 107.90473)
  create_atoms CPU = 0.000 seconds
create_atoms 1 single 84.97008000000001 27.28 80.29017925501434
Created 1 atoms
  using lattice units in orthogonal box = (68.195723 16.754678 64.480601) to (114.37642 59.982022 107.90473)
  create_atoms CPU = 0.000 seconds
create_atoms 4 single 85.10106 26.8071 76.6889006303725
Created 1 atoms
  using lattice units in orthogonal box = (68.195723 16.754678 64.480601) to (114.37642 59.982022 107.90473)
  create_atoms CPU = 0.000 seconds
[...]
  create_atoms CPU = 0.000 seconds
create_atoms 1 single 108.4328 44.3799 101.44351977077365
Created 1 atoms
  using lattice units in orthogonal box = (68.195723 16.754678 64.480601) to (114.37642 59.982022 107.90473)
  create_atoms CPU = 0.000 seconds
create_atoms 1 single 96.648 48.5367 102.45671862464184
Created 1 atoms
  using lattice units in orthogonal box = (68.195723 16.754678 64.480601) to (114.37642 59.982022 107.90473)
  create_atoms CPU = 0.000 seconds
create_atoms 1 single 101.5605 49.2028 101.32189570200575
Created 1 atoms
  using lattice units in orthogonal box = (68.195723 16.754678 64.480601) to (114.37642 59.982022 107.90473)
  create_atoms CPU = 0.000 seconds
group surface id  1 2 3 4 5 6 7 8 9 10 11 12 13 14 15 16 19 20 21 22 23 24 25 26 31 33 34 35 38 40 42 44 46 47 48 49 50 51 52 53 57 58 60 66 67 69 72 74 75 78 79 80 81 82 83 84 85 87 88 91 93 94 95 97 99 100 101 102 103 104 105 106 107 108 109 110 111 112 113 115 116 118 119 121 126 127 129 130 131 132 133 134 136 137 158 162 164 165 167 170 171 172 173 174 175 176 179 210 213 214 215 216 217 248 251 255 256 257 258 259 261 262 266 286 291 292 293 294 295 296 297 299 300 304 305 307 308 310 311 313 314 316 317 318 320 322 323 324 325 326 327 328 329 330 331 332 333 335 336 337 338 340 341 342 343 345 346 347 348 350 352 354 381 382 383 384 387 388 389 390 431 432 433 435 436 437 483 484 485 487 488 489 491 529 530 531 532 533 534 538 539 541 576 577 578 581 583 584 585 586 615 616 618 619 620 621 622 623 625 626 629 630 632 633 634 635 636 637 638 639 640 641 643 644 645 649 651 652 654 657 660 661 663 664 665 666 667 668 671 673 702 707 708 709 710 711 712 713 762 763 766 767 769 771 813 816 817 818 820 864 865 868 871 875 876 877 878 922 923 924 925 926 927 929 930 962 963 964 965 966 967 968 970 971 973 976 977 979 981 983 987 988 989 990 991 992 993 994 995 996 997 1001 1002 1004 1006 1007 1008 1012 1013 1014 1016 1017 1019 1020 1021 1022 1023 1057 1058 1063 1064 1065 1067 1068 1108 1109 1111 1112 1114 1115 1117 1120 1165 1169 1170 1171 1172 1175 1217 1218 1221 1223 1224 1227 1270 1271 1273 1275 1276 1277 1280 1282 1316 1317 1318 1319 1320 1321 1322 1323 1325 1326 1331 1332 1333 1334 1335 1337 1340 1342 1343 1344 1345 1346 1347 1348 1349 1350 1351 1352 1353 1354 1357 1358 1359 1360 1362 1363 1364 1365 1366 1367 1368 1369 1370 1399 1400 1401 1404 1405 1406 1407 1408 1411 1452 1454 1455 1457 1458 1459 1460 1499 1500 1504 1505 1506 1507 1508 1510 1511 1512 1553 1555 1556 1557 1558 1560 1561 1562 1567 1568 1604 1605 1606 1607 1608 1609 1610 1612 1615 1637 1640 1641 1642 1643 1644 1645 1647 1648 1649 1650 1651 1652 1653 1654 1655 1656 1657 1658 1659 1660 1661 1662 1663 1664 1665 1667 1669 1670 1672 1673 1676 1682 1684 1685 1686 1687 1688 1690 1691 1692 1693 1694 1695 1696 1699 1720 1726 1727 1728 1729 1730 1731 1733 1766 1770 1771 1772 1773 1774 1775 1778 1811 1812 1813 1814 1815 1816 1817 1818 1819 1823 1825 1826 1846 1851 1852 1853 1854 1855 1857 1858 1860 1862 1863 1864 1865 1868 1869 1870 1871 1872 1873 1874 1875 1876 1877 1878 1879 1880 1881 1882 1883 1884 1885 1886 1887 1888 1891 1892 1893 1894 1897 1898 1899 1900 1901 1902 1903 1904 1906 1908 1911 1914 1915 1916 1917 1923 1924 1925 1928 1929 1930 1932 1933 1934 1935 1936 1937 1939 1940 1941 1946 1948 1949 1954 1956 1958 1961 1962 1964 1965 1966 1967 1970 1971 1972 1973 1974 1976 1978 1979 1980 1981 1982 1983 1984 1985 
618 atoms in group surface
            fix freeze surface setforce 0 0 0 
            minimize 0 1e-4 100000 100000
Neighbor list info ...
  update: every = 1 steps, delay = 0 steps, check = yes
  max neighbors/atom: 2000, page size: 100000
  master list distance cutoff = 9.1553683
  ghost atom cutoff = 9.1553683
  binsize = 4.5776842, bins = 11 10 10
  1 neighbor lists, perpetual/occasional/extra = 1 0 0
  (1) pair eam/alloy, perpetual
      attributes: half, newton on
      pair build: half/bin/atomonly/newton
      stencil: half/bin/3d
      bin: standard
Per MPI rank memory allocation (min/avg/max) = 4.075 | 4.362 | 4.474 Mbytes
   Step          Temp          E_pair         E_mol          TotEng         Press          Volume    
         0   0             -9908.2859      0             -9908.2859      40860.274      65232.606    
       462   0             -10398.876      0             -10398.876      10322.635      65232.606    
Loop time of 0.130314 on 192 procs for 462 steps with 1985 atoms

99.8% CPU use with 192 MPI tasks x 1 OpenMP threads

Minimization stats:
  Stopping criterion = linesearch alpha is zero
  Energy initial, next-to-last, final = 
     -9908.28594994233  -10398.8763481593  -10398.8763481593
  Force two-norm initial, final = 66.861488 0.034030928
  Force max component initial, final = 4.4760005 0.0098378078
  Final line search alpha, max atom move = 7.6293945e-06 7.5056517e-08
  Iterations, force evaluations = 462 857

MPI task timing breakdown:
Section |  min time  |  avg time  |  max time  |%varavg| %total
---------------------------------------------------------------
Pair    | 0.041506   | 0.05558    | 0.080494   |   5.1 | 42.65
Neigh   | 1.7158e-05 | 0.00038327 | 0.0010311  |   0.0 |  0.29
Comm    | 0.010359   | 0.04558    | 0.062489   |   5.6 | 34.98
Output  | 0          | 0          | 0          |   0.0 |  0.00
Modify  | 4.2413e-05 | 6.2134e-05 | 9.8249e-05 |   0.0 |  0.05
Other   |            | 0.02871    |            |       | 22.03

Nlocal:        10.3385 ave          25 max           0 min
Histogram: 52 16 11 7 16 15 19 35 18 3
Nghost:        367.286 ave         843 max          37 min
Histogram: 15 23 34 31 32 21 9 11 4 12
Neighs:        695.094 ave        2158 max           0 min
Histogram: 68 19 14 20 11 16 12 15 13 4

Total # of neighbors = 133458
Ave neighs/atom = 67.233249
Neighbor list builds = 21
Dangerous builds = 0
            unfix freeze
            compute force all property/atom fx fy fz
            dump fcal all custom 1 dump.force id type x y z fx fy fz
            run 1 
WARNING: No fixes with time integration, atoms won't move (src/verlet.cpp:60)
Per MPI rank memory allocation (min/avg/max) = 2.95 | 3.238 | 3.349 Mbytes
   Step          Temp          E_pair         E_mol          TotEng         Press          Volume    
       462   0             -10398.876      0             -10398.876      10322.635      65232.606    
       463   0             -10398.876      0             -10398.876      10322.635      65232.606    
Loop time of 0.00115544 on 192 procs for 1 steps with 1985 atoms

Performance: 74.777 ns/day, 0.321 hours/ns, 865.472 timesteps/s, 1.718 Matom-step/s
99.8% CPU use with 192 MPI tasks x 1 OpenMP threads

MPI task timing breakdown:
Section |  min time  |  avg time  |  max time  |%varavg| %total
---------------------------------------------------------------
Pair    | 5.6083e-05 | 8.1486e-05 | 0.00014092 |   0.0 |  7.05
Neigh   | 0          | 0          | 0          |   0.0 |  0.00
Comm    | 1.4308e-05 | 6.7361e-05 | 0.00010598 |   0.0 |  5.83
Output  | 0.00011602 | 0.00052626 | 0.0010364  |   0.0 | 45.55
Modify  | 1.5201e-07 | 2.764e-07  | 6.03e-07   |   0.0 |  0.02
Other   |            | 0.0004801  |            |       | 41.55

Nlocal:        10.3385 ave          25 max           0 min
Histogram: 52 16 11 7 16 15 20 32 21 2
Nghost:        367.401 ave         842 max          37 min
Histogram: 15 22 35 30 33 21 9 11 4 12
Neighs:        695.057 ave        2165 max           0 min
Histogram: 68 19 13 20 12 16 11 16 14 3

Total # of neighbors = 133451
Ave neighs/atom = 67.229723
Neighbor list builds = 0
Dangerous builds = 0
            
Total wall time: 0:00:00
                                                                                                                                                                                                                                                                                                                                                                                                                                                                                                                                                                                                                                                                                                                                                                                                                                                                                                                                                                                                                                                                                                                                                                                                                                                                                                                                                                                                                                                                                                                                                                                                                                                                                                                                                                                                                                                                                                                                                                                                                                                                                                                                                                                                                                                                                                                                                                                                                                                                                                                                                                                                                                                                                                                                                                                                                                                                                                                                                                                                                                                                                                                                                                                                                                                                                                                                                                                                                                                                                                                                                                                                                                                                                                                                                                                                                                                                                                                                                                                                                                                                                                                                                                                                                                                                                                                                                                                                                                                                                                                                                                                                                                                                                                                                                                                                                                                                                                                                                                                                                                                                                                                                                                                                                                                                                                                                                                                                                                                                                                                                                                                                                                                                                                                                                                                                                                                                                                                                                                                                                                                                                                                                                                                                                                                                                                                                                                                                                                                                                                                                                                                                                                                                                                                                                                                                                                                                                                                                                                                                                                                                                                                                                                                                                                                                                                                                                                                                                                                                                                                                                                                                                                                                                                                                                                                                                                                                                                                                                                                                                                                                                                                                                                                                                                                                                                                                                                                                                                                                                                                                                                                                                                                                                                                                                                                                                                                                                                                                                                                                                                                                                                                                                                                                                                                                                                                                                                                                                                                                                                                                                                                                                                                                                                                                                                                                                                                                                                                                                                                                                                                                                                                                                                                                                                                                                                                                                                                                                                                                                                                                                                                                                                                                                                                                                                                                                                                                                                                                                                                                                                                                                                                                                                                                                                                                                                                                                                                                                                                                                                                                                                                                                                                                                                                                                                                                                                                                                                                                                                                                                                                                                                                                                                                                                                                                                                                                                                                                                                                                                                                                                                                                                                                                                                                                                                     
Total wall time: 0:00:00
