LAMMPS (2 Aug 2023)
WARNING: Using I/O redirection is unreliable with parallel runs. Better to use the -in switch to read input files. (src/lammps.cpp:537)
OMP_NUM_THREADS environment is not set. Defaulting to 1 thread. (src/comm.cpp:98)
  using 1 OpenMP thread(s) per MPI task

    dimension 3
    units metal
    boundary s s s
    atom_style atomic
    timestep 0.001
    region myregion block 91.8029 120.54990000000001 40.0711 66.831 94.1360620488798 122.80301182177853  units box
    create_box 5 myregion
Created orthogonal box = (91.8029 40.0711 94.136062) to (120.5499 66.831 122.80301)
  6 by 4 by 4 MPI processor grid
    mass 1 91.224
    mass 2 63.546
    mass 3 58.693
    mass 4 26.982
    mass 5 47.867 
    pair_style eam/alloy
    pair_coeff * * ZrTiCuNiAl_Zhou04.eam.alloy Zr Cu Ni Al Ti
Reading eam/alloy potential file ZrTiCuNiAl_Zhou04.eam.alloy with DATE: 2018-03-30
    create_atoms 1 single 99.21626 45.7627 98.41352758682999
Created 1 atoms
  using lattice units in orthogonal box = (91.800025 40.068424 94.133195) to (120.55277 66.833676 122.80588)
  create_atoms CPU = 0.000 seconds
create_atoms 3 single 100.3173 47.4435 96.95721681796856
Created 1 atoms
  using lattice units in orthogonal box = (91.800025 40.068424 94.133195) to (120.55277 66.833676 122.80588)
  create_atoms CPU = 0.000 seconds
create_atoms 1 single 97.8663 47.7327 99.68498966308267
Created 1 atoms
  using lattice units in orthogonal box = (91.800025 40.068424 94.133195) to (120.55277 66.833676 122.80588)
  create_atoms CPU = 0.000 seconds
create_atoms 1 single 101.65962 44.7057 100.85629051336299
Created 1 atoms
  using lattice units in orthogonal box = (91.800025 40.068424 94.133195) to (120.55277 66.833676 122.80588)
  create_atoms CPU = 0.000 seconds
create_atoms 2 single 104.2536 47.2151 100.30498556080313
Created 1 atoms
  using lattice units in orthogonal box = (91.800025 40.068424 94.133195) to (120.55277 66.833676 122.80588)
  create_atoms CPU = 0.000 seconds
create_atoms 1 single 102.3759 45.6451 98.36083316314514
Created 1 atoms
  using lattice units in orthogonal box = (91.800025 40.068424 94.133195) to (120.55277 66.833676 122.80588)
  create_atoms CPU = 0.000 seconds
create_atoms 1 single 105.03478 46.7786 97.9208765463479
Created 1 atoms
  using lattice units in orthogonal box = (91.800025 40.068424 94.133195) to (120.55277 66.833676 122.80588)
  create_atoms CPU = 0.000 seconds
create_atoms 1 single 107.1387 46.0938 100.70594412197647
Created 1 atoms
  using lattice units in orthogonal box = (91.800025 40.068424 94.133195) to (120.55277 66.833676 122.80588)
  create_atoms CPU = 0.000 seconds
create_atoms 3 single 104.52602 44.8383 100.82858411995727
Created 1 atoms
  using lattice units in orthogonal box = (91.800025 40.068424 94.133195) to (120.55277 66.833676 122.80588)
  create_atoms CPU = 0.000 seconds
create_atoms 3 single 109.88910000000001 46.624 100.85963619105726
Created 1 atoms
  using lattice units in orthogonal box = (91.800025 40.068424 94.133195) to (120.55277 66.833676 122.80588)
  create_atoms CPU = 0.000 seconds
create_atoms 2 single 95.38256 52.0478 100.15223446357385
Created 1 atoms
  using lattice units in orthogonal box = (91.800025 40.068424 94.133195) to (120.55277 66.833676 122.80588)
  create_atoms CPU = 0.000 seconds
create_atoms 1 single 95.79922 49.3027 100.97652580550103
Created 1 atoms
  using lattice units in orthogonal box = (91.800025 40.068424 94.133195) to (120.55277 66.833676 122.80588)
  create_atoms CPU = 0.000 seconds
create_atoms 1 single 101.3335 47.7855 99.8616832663116
Created 1 atoms
  using lattice units in orthogonal box = (91.800025 40.068424 94.133195) to (120.55277 66.833676 122.80588)
  create_atoms CPU = 0.000 seconds
create_atoms 1 single 97.39746 50.676 99.23740071904535
Created 1 atoms
  using lattice units in orthogonal box = (91.800025 40.068424 94.133195) to (120.55277 66.833676 122.80588)
  create_atoms CPU = 0.000 seconds
create_atoms 1 single 98.56528 51.597 97.16757630299614
Created 1 atoms
  using lattice units in orthogonal box = (91.800025 40.068424 94.133195) to (120.55277 66.833676 122.80588)
  create_atoms CPU = 0.000 seconds
create_atoms 2 single 99.97446000000001 52.7514 99.5662181049359
Created 1 atoms
  using lattice units in orthogonal box = (91.800025 40.068424 94.133195) to (120.55277 66.833676 122.80588)
  create_atoms CPU = 0.000 seconds
create_atoms 2 single 99.01580000000001 49.0386 98.03097025297515
Created 1 atoms
  using lattice units in orthogonal box = (91.800025 40.068424 94.133195) to (120.55277 66.833676 122.80588)
  create_atoms CPU = 0.000 seconds
create_atoms 2 single 102.61446000000001 52.6907 100.23117154667318
Created 1 atoms
  using lattice units in orthogonal box = (91.800025 40.068424 94.133195) to (120.55277 66.833676 122.80588)
  create_atoms CPU = 0.000 seconds
create_atoms 4 single 101.509 52.7271 97.52493650171596
Created 1 atoms
  using lattice units in orthogonal box = (91.800025 40.068424 94.133195) to (120.55277 66.833676 122.80588)
  create_atoms CPU = 0.000 seconds
create_atoms 2 single 101.3354 50.5616 98.95050885676122
Created 1 atoms
  using lattice units in orthogonal box = (91.800025 40.068424 94.133195) to (120.55277 66.833676 122.80588)
  create_atoms CPU = 0.000 seconds
create_atoms 1 single 100.29634 50.0097 96.1360620488798
Created 1 atoms
  using lattice units in orthogonal box = (91.800025 40.068424 94.133195) to (120.55277 66.833676 122.80588)
  create_atoms CPU = 0.000 seconds
create_atoms 4 single 97.98616000000001 53.4068 100.62115210291219
Created 1 atoms
  using lattice units in orthogonal box = (91.800025 40.068424 94.133195) to (120.55277 66.833676 122.80588)
  create_atoms CPU = 0.000 seconds
create_atoms 1 single 104.42678 51.3592 99.25444276480057
Created 1 atoms
  using lattice units in orthogonal box = (91.800025 40.068424 94.133195) to (120.55277 66.833676 122.80588)
  create_atoms CPU = 0.000 seconds
create_atoms 3 single 102.83252000000002 51.144 96.40810746639558
Created 1 atoms
  using lattice units in orthogonal box = (91.800025 40.068424 94.133195) to (120.55277 66.833676 122.80588)
  create_atoms CPU = 0.000 seconds
create_atoms 1 single 102.92142 48.7843 98.0108961868095
Created 1 atoms
  using lattice units in orthogonal box = (91.800025 40.068424 94.133195) to (120.55277 66.833676 122.80588)
  create_atoms CPU = 0.000 seconds
create_atoms 4 single 107.24078000000002 52.2018 97.24599062395573
Created 1 atoms
  using lattice units in orthogonal box = (91.800025 40.068424 94.133195) to (120.55277 66.833676 122.80588)
  create_atoms CPU = 0.000 seconds
create_atoms 3 single 107.13494 50.7693 99.68457145337089
Created 1 atoms
  using lattice units in orthogonal box = (91.800025 40.068424 94.133195) to (120.55277 66.833676 122.80588)
  create_atoms CPU = 0.000 seconds
create_atoms 1 single 105.3639 49.8558 97.19821016438435
Created 1 atoms
  using lattice units in orthogonal box = (91.800025 40.068424 94.133195) to (120.55277 66.833676 122.80588)
  create_atoms CPU = 0.000 seconds
create_atoms 1 single 107.9837 48.2521 98.65201167497507
Created 1 atoms
  using lattice units in orthogonal box = (91.800025 40.068424 94.133195) to (120.55277 66.833676 122.80588)
  create_atoms CPU = 0.000 seconds
create_atoms 3 single 105.92006 48.7213 99.85582833034663
Created 1 atoms
  using lattice units in orthogonal box = (91.800025 40.068424 94.133195) to (120.55277 66.833676 122.80588)
  create_atoms CPU = 0.000 seconds
create_atoms 2 single 106.80418 53.1679 99.90789543946379
Created 1 atoms
  using lattice units in orthogonal box = (91.800025 40.068424 94.133195) to (120.55277 66.833676 122.80588)
  create_atoms CPU = 0.000 seconds
create_atoms 1 single 104.56976 53.3858 97.2132657140086
Created 1 atoms
  using lattice units in orthogonal box = (91.800025 40.068424 94.133195) to (120.55277 66.833676 122.80588)
  create_atoms CPU = 0.000 seconds
create_atoms 1 single 111.28208 48.8065 100.30310361710009
Created 1 atoms
  using lattice units in orthogonal box = (91.800025 40.068424 94.133195) to (120.55277 66.833676 122.80588)
  create_atoms CPU = 0.000 seconds
create_atoms 1 single 109.58632000000001 51.2125 99.53422506198437
Created 1 atoms
  using lattice units in orthogonal box = (91.800025 40.068424 94.133195) to (120.55277 66.833676 122.80588)
  create_atoms CPU = 0.000 seconds
create_atoms 3 single 112.17534 52.2575 100.86862769986064
Created 1 atoms
  using lattice units in orthogonal box = (91.800025 40.068424 94.133195) to (120.55277 66.833676 122.80588)
  create_atoms CPU = 0.000 seconds
create_atoms 1 single 96.8334 46.7015 102.54502132954862
Created 1 atoms
  using lattice units in orthogonal box = (91.800025 40.068424 94.133195) to (120.55277 66.833676 122.80588)
  create_atoms CPU = 0.000 seconds
create_atoms 1 single 97.3072 47.1969 105.7422345761408
Created 1 atoms
  using lattice units in orthogonal box = (91.800025 40.068424 94.133195) to (120.55277 66.833676 122.80588)
  create_atoms CPU = 0.000 seconds
create_atoms 3 single 98.1735 44.8266 104.996775764885
Created 1 atoms
  using lattice units in orthogonal box = (91.800025 40.068424 94.133195) to (120.55277 66.833676 122.80588)
  create_atoms CPU = 0.000 seconds
create_atoms 1 single 99.96234 43.5568 103.96912995060264
Created 1 atoms
  using lattice units in orthogonal box = (91.800025 40.068424 94.133195) to (120.55277 66.833676 122.80588)
  create_atoms CPU = 0.000 seconds
create_atoms 2 single 101.9963 45.2121 103.65536811433635
Created 1 atoms
  using lattice units in orthogonal box = (91.800025 40.068424 94.133195) to (120.55277 66.833676 122.80588)
  create_atoms CPU = 0.000 seconds
create_atoms 1 single 99.82796 46.7059 104.50213822827193
Created 1 atoms
  using lattice units in orthogonal box = (91.800025 40.068424 94.133195) to (120.55277 66.833676 122.80588)
  create_atoms CPU = 0.000 seconds
create_atoms 5 single 100.9633 47.5582 102.3991706925638
Created 1 atoms
  using lattice units in orthogonal box = (91.800025 40.068424 94.133195) to (120.55277 66.833676 122.80588)
  create_atoms CPU = 0.000 seconds
create_atoms 1 single 98.99784 45.3519 101.4990788403757
Created 1 atoms
  using lattice units in orthogonal box = (91.800025 40.068424 94.133195) to (120.55277 66.833676 122.80588)
  create_atoms CPU = 0.000 seconds
create_atoms 1 single 103.15570000000001 42.9146 104.99573024060554
Created 1 atoms
  using lattice units in orthogonal box = (91.800025 40.068424 94.133195) to (120.55277 66.833676 122.80588)
  create_atoms CPU = 0.000 seconds
create_atoms 1 single 103.79056 46.623 102.64580987008868
Created 1 atoms
  using lattice units in orthogonal box = (91.800025 40.068424 94.133195) to (120.55277 66.833676 122.80588)
  create_atoms CPU = 0.000 seconds
create_atoms 1 single 103.0466 47.2879 105.47980798199605
Created 1 atoms
  using lattice units in orthogonal box = (91.800025 40.068424 94.133195) to (120.55277 66.833676 122.80588)
  create_atoms CPU = 0.000 seconds
create_atoms 1 single 105.26270000000001 45.2636 105.51221923465934
Created 1 atoms
  using lattice units in orthogonal box = (91.800025 40.068424 94.133195) to (120.55277 66.833676 122.80588)
  create_atoms CPU = 0.000 seconds
create_atoms 3 single 104.04398 43.8734 102.98957825317551
Created 1 atoms
  using lattice units in orthogonal box = (91.800025 40.068424 94.133195) to (120.55277 66.833676 122.80588)
  create_atoms CPU = 0.000 seconds
create_atoms 1 single 106.2052 42.5523 105.12014762986142
Created 1 atoms
  using lattice units in orthogonal box = (91.800025 40.068424 94.133195) to (120.55277 66.833676 122.80588)
  create_atoms CPU = 0.000 seconds
create_atoms 1 single 106.74960000000002 44.8269 103.35477988399128
Created 1 atoms
  using lattice units in orthogonal box = (91.800025 40.068424 94.133195) to (120.55277 66.833676 122.80588)
  create_atoms CPU = 0.000 seconds
create_atoms 3 single 109.44988000000001 44.0495 103.91225342979995
Created 1 atoms
  using lattice units in orthogonal box = (91.800025 40.068424 94.133195) to (120.55277 66.833676 122.80588)
  create_atoms CPU = 0.000 seconds
create_atoms 1 single 109.72318 46.7099 103.54788821840775
Created 1 atoms
  using lattice units in orthogonal box = (91.800025 40.068424 94.133195) to (120.55277 66.833676 122.80588)
  create_atoms CPU = 0.000 seconds
create_atoms 1 single 108.22659999999999 46.7141 105.73700695474348
Created 1 atoms
  using lattice units in orthogonal box = (91.800025 40.068424 94.133195) to (120.55277 66.833676 122.80588)
  create_atoms CPU = 0.000 seconds
create_atoms 1 single 112.9825 46.8335 105.57913278854485
Created 1 atoms
  using lattice units in orthogonal box = (91.800025 40.068424 94.133195) to (120.55277 66.833676 122.80588)
  create_atoms CPU = 0.000 seconds
create_atoms 2 single 110.90570000000001 45.4418 105.96179467482763
Created 1 atoms
  using lattice units in orthogonal box = (91.800025 40.068424 94.133195) to (120.55277 66.833676 122.80588)
  create_atoms CPU = 0.000 seconds
create_atoms 1 single 94.96476 48.597 103.47752443440002
Created 1 atoms
  using lattice units in orthogonal box = (91.800025 40.068424 94.133195) to (120.55277 66.833676 122.80588)
  create_atoms CPU = 0.000 seconds
create_atoms 1 single 94.0678 50.7006 105.00932205623853
Created 1 atoms
  using lattice units in orthogonal box = (91.800025 40.068424 94.133195) to (120.55277 66.833676 122.80588)
  create_atoms CPU = 0.000 seconds
create_atoms 4 single 93.8029 53.3547 103.6391624880047
Created 1 atoms
  using lattice units in orthogonal box = (91.800025 40.068424 94.133195) to (120.55277 66.833676 122.80588)
  create_atoms CPU = 0.000 seconds
create_atoms 1 single 95.81224 51.4177 103.18550950314652
Created 1 atoms
  using lattice units in orthogonal box = (91.800025 40.068424 94.133195) to (120.55277 66.833676 122.80588)
  create_atoms CPU = 0.000 seconds
create_atoms 3 single 97.78932 49.1981 104.08591501261844
Created 1 atoms
  using lattice units in orthogonal box = (91.800025 40.068424 94.133195) to (120.55277 66.833676 122.80588)
  create_atoms CPU = 0.000 seconds
create_atoms 5 single 98.96730000000001 51.7434 105.00723100767961
Created 1 atoms
  using lattice units in orthogonal box = (91.800025 40.068424 94.133195) to (120.55277 66.833676 122.80588)
  create_atoms CPU = 0.000 seconds
create_atoms 2 single 98.60426 48.709 102.17532394433117
Created 1 atoms
  using lattice units in orthogonal box = (91.800025 40.068424 94.133195) to (120.55277 66.833676 122.80588)
  create_atoms CPU = 0.000 seconds
create_atoms 4 single 98.11256 51.2934 102.18368813856685
Created 1 atoms
  using lattice units in orthogonal box = (91.800025 40.068424 94.133195) to (120.55277 66.833676 122.80588)
  create_atoms CPU = 0.000 seconds
create_atoms 4 single 102.7734 51.8681 105.47144378776036
Created 1 atoms
  using lattice units in orthogonal box = (91.800025 40.068424 94.133195) to (120.55277 66.833676 122.80588)
  create_atoms CPU = 0.000 seconds
create_atoms 2 single 100.59718000000001 52.357 103.20181968190612
Created 1 atoms
  using lattice units in orthogonal box = (91.800025 40.068424 94.133195) to (120.55277 66.833676 122.80588)
  create_atoms CPU = 0.000 seconds
create_atoms 1 single 100.68396 49.7464 104.36622007194198
Created 1 atoms
  using lattice units in orthogonal box = (91.800025 40.068424 94.133195) to (120.55277 66.833676 122.80588)
  create_atoms CPU = 0.000 seconds
create_atoms 1 single 103.10288 52.2061 102.81340741208629
Created 1 atoms
  using lattice units in orthogonal box = (91.800025 40.068424 94.133195) to (120.55277 66.833676 122.80588)
  create_atoms CPU = 0.000 seconds
create_atoms 1 single 100.467 50.3735 101.13304079013635
Created 1 atoms
  using lattice units in orthogonal box = (91.800025 40.068424 94.133195) to (120.55277 66.833676 122.80588)
  create_atoms CPU = 0.000 seconds
create_atoms 4 single 103.16198 49.4526 103.73608258871076
Created 1 atoms
  using lattice units in orthogonal box = (91.800025 40.068424 94.133195) to (120.55277 66.833676 122.80588)
  create_atoms CPU = 0.000 seconds
create_atoms 5 single 105.478 53.1922 105.31775171867956
Created 1 atoms
  using lattice units in orthogonal box = (91.800025 40.068424 94.133195) to (120.55277 66.833676 122.80588)
  create_atoms CPU = 0.000 seconds
create_atoms 1 single 105.92496 50.5544 104.10431623993696
Created 1 atoms
  using lattice units in orthogonal box = (91.800025 40.068424 94.133195) to (120.55277 66.833676 122.80588)
  create_atoms CPU = 0.000 seconds
create_atoms 3 single 105.5473 47.9562 104.84831131720152
Created 1 atoms
  using lattice units in orthogonal box = (91.800025 40.068424 94.133195) to (120.55277 66.833676 122.80588)
  create_atoms CPU = 0.000 seconds
create_atoms 1 single 103.74348 49.6841 101.23989337149727
Created 1 atoms
  using lattice units in orthogonal box = (91.800025 40.068424 94.133195) to (120.55277 66.833676 122.80588)
  create_atoms CPU = 0.000 seconds
create_atoms 1 single 108.3619 52.493 105.10551028994895
Created 1 atoms
  using lattice units in orthogonal box = (91.800025 40.068424 94.133195) to (120.55277 66.833676 122.80588)
  create_atoms CPU = 0.000 seconds
create_atoms 1 single 108.79568 51.8293 102.33508005423282
Created 1 atoms
  using lattice units in orthogonal box = (91.800025 40.068424 94.133195) to (120.55277 66.833676 122.80588)
  create_atoms CPU = 0.000 seconds
create_atoms 1 single 105.83312000000001 52.7584 102.08373601745038
Created 1 atoms
  using lattice units in orthogonal box = (91.800025 40.068424 94.133195) to (120.55277 66.833676 122.80588)
  create_atoms CPU = 0.000 seconds
create_atoms 3 single 106.53872 50.2758 101.7679876850531
Created 1 atoms
  using lattice units in orthogonal box = (91.800025 40.068424 94.133195) to (120.55277 66.833676 122.80588)
  create_atoms CPU = 0.000 seconds
create_atoms 1 single 108.92564 48.9686 101.55762820002552
Created 1 atoms
  using lattice units in orthogonal box = (91.800025 40.068424 94.133195) to (120.55277 66.833676 122.80588)
  create_atoms CPU = 0.000 seconds
create_atoms 1 single 108.9165 49.5277 104.37887091572347
Created 1 atoms
  using lattice units in orthogonal box = (91.800025 40.068424 94.133195) to (120.55277 66.833676 122.80588)
  create_atoms CPU = 0.000 seconds
create_atoms 1 single 106.50928 47.8315 102.70780945986071
Created 1 atoms
  using lattice units in orthogonal box = (91.800025 40.068424 94.133195) to (120.55277 66.833676 122.80588)
  create_atoms CPU = 0.000 seconds
create_atoms 1 single 111.64210000000001 50.7345 102.7515123747422
Created 1 atoms
  using lattice units in orthogonal box = (91.800025 40.068424 94.133195) to (120.55277 66.833676 122.80588)
  create_atoms CPU = 0.000 seconds
create_atoms 1 single 114.4896 49.1699 104.80649034602307
Created 1 atoms
  using lattice units in orthogonal box = (91.800025 40.068424 94.133195) to (120.55277 66.833676 122.80588)
  create_atoms CPU = 0.000 seconds
create_atoms 5 single 113.61480000000002 51.5778 105.57704173998593
Created 1 atoms
  using lattice units in orthogonal box = (91.800025 40.068424 94.133195) to (120.55277 66.833676 122.80588)
  create_atoms CPU = 0.000 seconds
create_atoms 2 single 110.92450000000001 51.7154 105.13164839693549
Created 1 atoms
  using lattice units in orthogonal box = (91.800025 40.068424 94.133195) to (120.55277 66.833676 122.80588)
  create_atoms CPU = 0.000 seconds
create_atoms 2 single 111.94018 47.9169 102.92736955854757
Created 1 atoms
  using lattice units in orthogonal box = (91.800025 40.068424 94.133195) to (120.55277 66.833676 122.80588)
  create_atoms CPU = 0.000 seconds
create_atoms 1 single 114.52756 52.4249 103.35153875872494
Created 1 atoms
  using lattice units in orthogonal box = (91.800025 40.068424 94.133195) to (120.55277 66.833676 122.80588)
  create_atoms CPU = 0.000 seconds
create_atoms 3 single 113.79774 49.9715 102.03125069862142
Created 1 atoms
  using lattice units in orthogonal box = (91.800025 40.068424 94.133195) to (120.55277 66.833676 122.80588)
  create_atoms CPU = 0.000 seconds
create_atoms 2 single 111.69630000000001 49.2898 104.92568011388164
Created 1 atoms
  using lattice units in orthogonal box = (91.800025 40.068424 94.133195) to (120.55277 66.833676 122.80588)
  create_atoms CPU = 0.000 seconds
create_atoms 2 single 97.4662 46.416 108.6613383643963
Created 1 atoms
  using lattice units in orthogonal box = (91.800025 40.068424 94.133195) to (120.55277 66.833676 122.80588)
  create_atoms CPU = 0.000 seconds
create_atoms 1 single 99.80040000000001 45.7813 107.77891587253109
Created 1 atoms
  using lattice units in orthogonal box = (91.800025 40.068424 94.133195) to (120.55277 66.833676 122.80588)
  create_atoms CPU = 0.000 seconds
create_atoms 4 single 99.8565 44.642 110.50355214480682
Created 1 atoms
  using lattice units in orthogonal box = (91.800025 40.068424 94.133195) to (120.55277 66.833676 122.80588)
  create_atoms CPU = 0.000 seconds
create_atoms 5 single 100.0512 43.0836 106.87871946791505
Created 1 atoms
  using lattice units in orthogonal box = (91.800025 40.068424 94.133195) to (120.55277 66.833676 122.80588)
  create_atoms CPU = 0.000 seconds
create_atoms 1 single 102.5103 44.2422 109.54480638054096
Created 1 atoms
  using lattice units in orthogonal box = (91.800025 40.068424 94.133195) to (120.55277 66.833676 122.80588)
  create_atoms CPU = 0.000 seconds
create_atoms 5 single 101.9281 44.8569 106.37895886233262
Created 1 atoms
  using lattice units in orthogonal box = (91.800025 40.068424 94.133195) to (120.55277 66.833676 122.80588)
  create_atoms CPU = 0.000 seconds
create_atoms 4 single 102.55770000000001 46.9517 108.36754604186771
Created 1 atoms
  using lattice units in orthogonal box = (91.800025 40.068424 94.133195) to (120.55277 66.833676 122.80588)
  create_atoms CPU = 0.000 seconds
create_atoms 4 single 104.6371 45.3342 108.18457929296201
Created 1 atoms
  using lattice units in orthogonal box = (91.800025 40.068424 94.133195) to (120.55277 66.833676 122.80588)
  create_atoms CPU = 0.000 seconds
create_atoms 4 single 105.77270000000001 43.0081 107.84269285357823
Created 1 atoms
  using lattice units in orthogonal box = (91.800025 40.068424 94.133195) to (120.55277 66.833676 122.80588)
  create_atoms CPU = 0.000 seconds
create_atoms 4 single 103.05890000000001 42.2808 107.7329128042348
Created 1 atoms
  using lattice units in orthogonal box = (91.800025 40.068424 94.133195) to (120.55277 66.833676 122.80588)
  create_atoms CPU = 0.000 seconds
create_atoms 1 single 105.79809999999999 43.6001 110.81511838008623
Created 1 atoms
  using lattice units in orthogonal box = (91.800025 40.068424 94.133195) to (120.55277 66.833676 122.80588)
  create_atoms CPU = 0.000 seconds
create_atoms 4 single 107.8601 45.1976 108.07584476789806
Created 1 atoms
  using lattice units in orthogonal box = (91.800025 40.068424 94.133195) to (120.55277 66.833676 122.80588)
  create_atoms CPU = 0.000 seconds
create_atoms 1 single 107.05550000000001 46.4721 110.1919859095274
Created 1 atoms
  using lattice units in orthogonal box = (91.800025 40.068424 94.133195) to (120.55277 66.833676 122.80588)
  create_atoms CPU = 0.000 seconds
create_atoms 4 single 108.39540000000001 42.0711 108.43027749863539
Created 1 atoms
  using lattice units in orthogonal box = (91.800025 40.068424 94.133195) to (120.55277 66.833676 122.80588)
  create_atoms CPU = 0.000 seconds
create_atoms 4 single 105.96260000000001 47.6966 107.47675935576682
Created 1 atoms
  using lattice units in orthogonal box = (91.800025 40.068424 94.133195) to (120.55277 66.833676 122.80588)
  create_atoms CPU = 0.000 seconds
create_atoms 3 single 108.2488 43.9533 110.36345189135903
Created 1 atoms
  using lattice units in orthogonal box = (91.800025 40.068424 94.133195) to (120.55277 66.833676 122.80588)
  create_atoms CPU = 0.000 seconds
create_atoms 1 single 110.9242 43.5793 109.95256084953081
Created 1 atoms
  using lattice units in orthogonal box = (91.800025 40.068424 94.133195) to (120.55277 66.833676 122.80588)
  create_atoms CPU = 0.000 seconds
create_atoms 5 single 110.68650000000001 45.9648 108.38741100317748
Created 1 atoms
  using lattice units in orthogonal box = (91.800025 40.068424 94.133195) to (120.55277 66.833676 122.80588)
  create_atoms CPU = 0.000 seconds
create_atoms 2 single 112.6297 46.5284 110.80989075868894
Created 1 atoms
  using lattice units in orthogonal box = (91.800025 40.068424 94.133195) to (120.55277 66.833676 122.80588)
  create_atoms CPU = 0.000 seconds
create_atoms 1 single 109.116 43.6858 106.43437164914407
Created 1 atoms
  using lattice units in orthogonal box = (91.800025 40.068424 94.133195) to (120.55277 66.833676 122.80588)
  create_atoms CPU = 0.000 seconds
create_atoms 1 single 112.39 43.8106 107.94619975724487
Created 1 atoms
  using lattice units in orthogonal box = (91.800025 40.068424 94.133195) to (120.55277 66.833676 122.80588)
  create_atoms CPU = 0.000 seconds
create_atoms 2 single 114.08600000000001 44.5002 110.61646876698862
Created 1 atoms
  using lattice units in orthogonal box = (91.800025 40.068424 94.133195) to (120.55277 66.833676 122.80588)
  create_atoms CPU = 0.000 seconds
create_atoms 4 single 116.5417 47.4722 110.38645342550717
Created 1 atoms
  using lattice units in orthogonal box = (91.800025 40.068424 94.133195) to (120.55277 66.833676 122.80588)
  create_atoms CPU = 0.000 seconds
create_atoms 1 single 113.65410000000001 46.5787 108.65192864588116
Created 1 atoms
  using lattice units in orthogonal box = (91.800025 40.068424 94.133195) to (120.55277 66.833676 122.80588)
  create_atoms CPU = 0.000 seconds
create_atoms 3 single 115.49050000000001 47.6689 107.47675935576682
Created 1 atoms
  using lattice units in orthogonal box = (91.800025 40.068424 94.133195) to (120.55277 66.833676 122.80588)
  create_atoms CPU = 0.000 seconds
create_atoms 1 single 95.62710000000001 53.0116 106.70725348608343
Created 1 atoms
  using lattice units in orthogonal box = (91.800025 40.068424 94.133195) to (120.55277 66.833676 122.80588)
  create_atoms CPU = 0.000 seconds
create_atoms 1 single 97.2492 50.278 106.31936397840333
Created 1 atoms
  using lattice units in orthogonal box = (91.800025 40.068424 94.133195) to (120.55277 66.833676 122.80588)
  create_atoms CPU = 0.000 seconds
create_atoms 1 single 96.69800000000001 48.9391 109.7779582948608
Created 1 atoms
  using lattice units in orthogonal box = (91.800025 40.068424 94.133195) to (120.55277 66.833676 122.80588)
  create_atoms CPU = 0.000 seconds
create_atoms 4 single 95.15690000000001 48.2112 106.75952970005649
Created 1 atoms
  using lattice units in orthogonal box = (91.800025 40.068424 94.133195) to (120.55277 66.833676 122.80588)
  create_atoms CPU = 0.000 seconds
create_atoms 3 single 95.4667 50.7573 107.89496906755129
Created 1 atoms
  using lattice units in orthogonal box = (91.800025 40.068424 94.133195) to (120.55277 66.833676 122.80588)
  create_atoms CPU = 0.000 seconds
create_atoms 1 single 96.1396 52.5405 110.14284626839272
Created 1 atoms
  using lattice units in orthogonal box = (91.800025 40.068424 94.133195) to (120.55277 66.833676 122.80588)
  create_atoms CPU = 0.000 seconds
create_atoms 1 single 98.4124 51.3739 109.29283502919083
Created 1 atoms
  using lattice units in orthogonal box = (91.800025 40.068424 94.133195) to (120.55277 66.833676 122.80588)
  create_atoms CPU = 0.000 seconds
create_atoms 1 single 99.2148 48.5656 108.92376495854104
Created 1 atoms
  using lattice units in orthogonal box = (91.800025 40.068424 94.133195) to (120.55277 66.833676 122.80588)
  create_atoms CPU = 0.000 seconds
create_atoms 2 single 98.5696 52.9297 107.21015066450423
Created 1 atoms
  using lattice units in orthogonal box = (91.800025 40.068424 94.133195) to (120.55277 66.833676 122.80588)
  create_atoms CPU = 0.000 seconds
create_atoms 1 single 103.9758 51.1104 109.89505701416044
Created 1 atoms
  using lattice units in orthogonal box = (91.800025 40.068424 94.133195) to (120.55277 66.833676 122.80588)
  create_atoms CPU = 0.000 seconds
create_atoms 3 single 102.0562 49.089 109.53957875914365
Created 1 atoms
  using lattice units in orthogonal box = (91.800025 40.068424 94.133195) to (120.55277 66.833676 122.80588)
  create_atoms CPU = 0.000 seconds
create_atoms 4 single 100.1002 48.615 106.63406678652115
Created 1 atoms
  using lattice units in orthogonal box = (91.800025 40.068424 94.133195) to (120.55277 66.833676 122.80588)
  create_atoms CPU = 0.000 seconds
create_atoms 1 single 100.80600000000001 51.2216 107.92006165025835
Created 1 atoms
  using lattice units in orthogonal box = (91.800025 40.068424 94.133195) to (120.55277 66.833676 122.80588)
  create_atoms CPU = 0.000 seconds
create_atoms 1 single 105.0083 52.3749 107.9535184272011
Created 1 atoms
  using lattice units in orthogonal box = (91.800025 40.068424 94.133195) to (120.55277 66.833676 122.80588)
  create_atoms CPU = 0.000 seconds
create_atoms 2 single 104.7625 48.3053 109.80827849896517
Created 1 atoms
  using lattice units in orthogonal box = (91.800025 40.068424 94.133195) to (120.55277 66.833676 122.80588)
  create_atoms CPU = 0.000 seconds
create_atoms 1 single 103.1405 49.5603 107.33561357803957
Created 1 atoms
  using lattice units in orthogonal box = (91.800025 40.068424 94.133195) to (120.55277 66.833676 122.80588)
  create_atoms CPU = 0.000 seconds
create_atoms 2 single 105.16 50.0753 106.30577216277035
Created 1 atoms
  using lattice units in orthogonal box = (91.800025 40.068424 94.133195) to (120.55277 66.833676 122.80588)
  create_atoms CPU = 0.000 seconds
create_atoms 2 single 110.89120000000001 47.8402 106.5033762515885
Created 1 atoms
  using lattice units in orthogonal box = (91.800025 40.068424 94.133195) to (120.55277 66.833676 122.80588)
  create_atoms CPU = 0.000 seconds
create_atoms 1 single 109.0825 48.182 108.70943248125151
Created 1 atoms
  using lattice units in orthogonal box = (91.800025 40.068424 94.133195) to (120.55277 66.833676 122.80588)
  create_atoms CPU = 0.000 seconds
create_atoms 2 single 107.8042 52.3803 110.27667337616374
Created 1 atoms
  using lattice units in orthogonal box = (91.800025 40.068424 94.133195) to (120.55277 66.833676 122.80588)
  create_atoms CPU = 0.000 seconds
create_atoms 1 single 106.7731 49.8705 109.47684730237597
Created 1 atoms
  using lattice units in orthogonal box = (91.800025 40.068424 94.133195) to (120.55277 66.833676 122.80588)
  create_atoms CPU = 0.000 seconds
create_atoms 1 single 110.3319 52.9874 108.38741100317748
Created 1 atoms
  using lattice units in orthogonal box = (91.800025 40.068424 94.133195) to (120.55277 66.833676 122.80588)
  create_atoms CPU = 0.000 seconds
create_atoms 1 single 107.6057 51.5593 107.48303250144359
Created 1 atoms
  using lattice units in orthogonal box = (91.800025 40.068424 94.133195) to (120.55277 66.833676 122.80588)
  create_atoms CPU = 0.000 seconds
create_atoms 2 single 109.7914 50.7954 109.84068975162846
Created 1 atoms
  using lattice units in orthogonal box = (91.800025 40.068424 94.133195) to (120.55277 66.833676 122.80588)
  create_atoms CPU = 0.000 seconds
create_atoms 3 single 111.879 48.4073 109.00113375522116
Created 1 atoms
  using lattice units in orthogonal box = (91.800025 40.068424 94.133195) to (120.55277 66.833676 122.80588)
  create_atoms CPU = 0.000 seconds
create_atoms 1 single 110.44229999999999 50.3276 107.28333736406651
Created 1 atoms
  using lattice units in orthogonal box = (91.800025 40.068424 94.133195) to (120.55277 66.833676 122.80588)
  create_atoms CPU = 0.000 seconds
create_atoms 3 single 107.69290000000001 49.2456 106.28381615290166
Created 1 atoms
  using lattice units in orthogonal box = (91.800025 40.068424 94.133195) to (120.55277 66.833676 122.80588)
  create_atoms CPU = 0.000 seconds
create_atoms 2 single 114.2754 48.5148 110.88516850681015
Created 1 atoms
  using lattice units in orthogonal box = (91.800025 40.068424 94.133195) to (120.55277 66.833676 122.80588)
  create_atoms CPU = 0.000 seconds
create_atoms 5 single 115.95420000000001 50.2351 110.2327613564264
Created 1 atoms
  using lattice units in orthogonal box = (91.800025 40.068424 94.133195) to (120.55277 66.833676 122.80588)
  create_atoms CPU = 0.000 seconds
create_atoms 1 single 116.6875 50.0471 107.6252238034503
Created 1 atoms
  using lattice units in orthogonal box = (91.800025 40.068424 94.133195) to (120.55277 66.833676 122.80588)
  create_atoms CPU = 0.000 seconds
create_atoms 3 single 112.5986 52.2999 107.62104170633246
Created 1 atoms
  using lattice units in orthogonal box = (91.800025 40.068424 94.133195) to (120.55277 66.833676 122.80588)
  create_atoms CPU = 0.000 seconds
create_atoms 1 single 113.53940000000001 49.5158 107.60326779358162
Created 1 atoms
  using lattice units in orthogonal box = (91.800025 40.068424 94.133195) to (120.55277 66.833676 122.80588)
  create_atoms CPU = 0.000 seconds
create_atoms 1 single 115.4198 53.2701 110.2243971621907
Created 1 atoms
  using lattice units in orthogonal box = (91.800025 40.068424 94.133195) to (120.55277 66.833676 122.80588)
  create_atoms CPU = 0.000 seconds
create_atoms 3 single 115.16319999999999 51.9199 108.09570972920781
Created 1 atoms
  using lattice units in orthogonal box = (91.800025 40.068424 94.133195) to (120.55277 66.833676 122.80588)
  create_atoms CPU = 0.000 seconds
create_atoms 1 single 112.9396 50.9322 109.99960944210655
Created 1 atoms
  using lattice units in orthogonal box = (91.800025 40.068424 94.133195) to (120.55277 66.833676 122.80588)
  create_atoms CPU = 0.000 seconds
create_atoms 1 single 116.5215 52.766 106.34236551255148
Created 1 atoms
  using lattice units in orthogonal box = (91.800025 40.068424 94.133195) to (120.55277 66.833676 122.80588)
  create_atoms CPU = 0.000 seconds
create_atoms 1 single 118.0136 52.1947 109.89401148988097
Created 1 atoms
  using lattice units in orthogonal box = (91.800025 40.068424 94.133195) to (120.55277 66.833676 122.80588)
  create_atoms CPU = 0.000 seconds
create_atoms 1 single 98.8386 47.1009 111.64003703658108
Created 1 atoms
  using lattice units in orthogonal box = (91.800025 40.068424 94.133195) to (120.55277 66.833676 122.80588)
  create_atoms CPU = 0.000 seconds
create_atoms 1 single 101.6258 46.4648 113.86700375183332
Created 1 atoms
  using lattice units in orthogonal box = (91.800025 40.068424 94.133195) to (120.55277 66.833676 122.80588)
  create_atoms CPU = 0.000 seconds
create_atoms 1 single 103.0241 44.4048 112.60401042224424
Created 1 atoms
  using lattice units in orthogonal box = (91.800025 40.068424 94.133195) to (120.55277 66.833676 122.80588)
  create_atoms CPU = 0.000 seconds
create_atoms 1 single 101.7345 47.0132 111.01481351746332
Created 1 atoms
  using lattice units in orthogonal box = (91.800025 40.068424 94.133195) to (120.55277 66.833676 122.80588)
  create_atoms CPU = 0.000 seconds
create_atoms 3 single 104.1382 47.0888 113.64744365314647
Created 1 atoms
  using lattice units in orthogonal box = (91.800025 40.068424 94.133195) to (120.55277 66.833676 122.80588)
  create_atoms CPU = 0.000 seconds
create_atoms 3 single 105.9535 44.2332 113.53661807952359
Created 1 atoms
  using lattice units in orthogonal box = (91.800025 40.068424 94.133195) to (120.55277 66.833676 122.80588)
  create_atoms CPU = 0.000 seconds
create_atoms 1 single 104.74380000000001 45.2239 115.4844298121597
Created 1 atoms
  using lattice units in orthogonal box = (91.800025 40.068424 94.133195) to (120.55277 66.833676 122.80588)
  create_atoms CPU = 0.000 seconds
create_atoms 1 single 104.852 46.1775 111.54489432715012
Created 1 atoms
  using lattice units in orthogonal box = (91.800025 40.068424 94.133195) to (120.55277 66.833676 122.80588)
  create_atoms CPU = 0.000 seconds
create_atoms 1 single 107.0588 46.5898 114.82261294326078
Created 1 atoms
  using lattice units in orthogonal box = (91.800025 40.068424 94.133195) to (120.55277 66.833676 122.80588)
  create_atoms CPU = 0.000 seconds
create_atoms 2 single 110.33140000000002 43.331 112.47854750870891
Created 1 atoms
  using lattice units in orthogonal box = (91.800025 40.068424 94.133195) to (120.55277 66.833676 122.80588)
  create_atoms CPU = 0.000 seconds
create_atoms 1 single 108.38550000000001 45.1703 113.01071936695465
Created 1 atoms
  using lattice units in orthogonal box = (91.800025 40.068424 94.133195) to (120.55277 66.833676 122.80588)
  create_atoms CPU = 0.000 seconds
create_atoms 1 single 113.0241 44.4172 112.74411067569204
Created 1 atoms
  using lattice units in orthogonal box = (91.800025 40.068424 94.133195) to (120.55277 66.833676 122.80588)
  create_atoms CPU = 0.000 seconds
create_atoms 3 single 111.365 45.3192 114.16393264720027
Created 1 atoms
  using lattice units in orthogonal box = (91.800025 40.068424 94.133195) to (120.55277 66.833676 122.80588)
  create_atoms CPU = 0.000 seconds
create_atoms 5 single 112.9966 47.1702 113.4958426326246
Created 1 atoms
  using lattice units in orthogonal box = (91.800025 40.068424 94.133195) to (120.55277 66.833676 122.80588)
  create_atoms CPU = 0.000 seconds
create_atoms 1 single 110.2433 46.0301 111.27514906304916
Created 1 atoms
  using lattice units in orthogonal box = (91.800025 40.068424 94.133195) to (120.55277 66.833676 122.80588)
  create_atoms CPU = 0.000 seconds
create_atoms 3 single 110.0793 46.5303 115.76985794045258
Created 1 atoms
  using lattice units in orthogonal box = (91.800025 40.068424 94.133195) to (120.55277 66.833676 122.80588)
  create_atoms CPU = 0.000 seconds
create_atoms 1 single 115.35570000000001 46.4337 112.7211091415439
Created 1 atoms
  using lattice units in orthogonal box = (91.800025 40.068424 94.133195) to (120.55277 66.833676 122.80588)
  create_atoms CPU = 0.000 seconds
create_atoms 2 single 114.906 45.5264 115.26068761635501
Created 1 atoms
  using lattice units in orthogonal box = (91.800025 40.068424 94.133195) to (120.55277 66.833676 122.80588)
  create_atoms CPU = 0.000 seconds
create_atoms 2 single 100.3767 49.2179 111.7174058332612
Created 1 atoms
  using lattice units in orthogonal box = (91.800025 40.068424 94.133195) to (120.55277 66.833676 122.80588)
  create_atoms CPU = 0.000 seconds
create_atoms 1 single 98.2836 50.671 112.17952756478303
Created 1 atoms
  using lattice units in orthogonal box = (91.800025 40.068424 94.133195) to (120.55277 66.833676 122.80588)
  create_atoms CPU = 0.000 seconds
create_atoms 2 single 99.619 53.0369 111.47379867614677
Created 1 atoms
  using lattice units in orthogonal box = (91.800025 40.068424 94.133195) to (120.55277 66.833676 122.80588)
  create_atoms CPU = 0.000 seconds
create_atoms 1 single 100.4471 49.031 114.5695960676312
Created 1 atoms
  using lattice units in orthogonal box = (91.800025 40.068424 94.133195) to (120.55277 66.833676 122.80588)
  create_atoms CPU = 0.000 seconds
create_atoms 1 single 99.1671 51.8641 115.00976178928433
Created 1 atoms
  using lattice units in orthogonal box = (91.800025 40.068424 94.133195) to (120.55277 66.833676 122.80588)
  create_atoms CPU = 0.000 seconds
create_atoms 1 single 101.3146 51.7033 113.7948625765505
Created 1 atoms
  using lattice units in orthogonal box = (91.800025 40.068424 94.133195) to (120.55277 66.833676 122.80588)
  create_atoms CPU = 0.000 seconds
create_atoms 2 single 103.5575 53.2611 115.39765129696443
Created 1 atoms
  using lattice units in orthogonal box = (91.800025 40.068424 94.133195) to (120.55277 66.833676 122.80588)
  create_atoms CPU = 0.000 seconds
create_atoms 1 single 104.2239 49.116 112.09588562242614
Created 1 atoms
  using lattice units in orthogonal box = (91.800025 40.068424 94.133195) to (120.55277 66.833676 122.80588)
  create_atoms CPU = 0.000 seconds
create_atoms 2 single 103.8005 53.1099 111.55639509422419
Created 1 atoms
  using lattice units in orthogonal box = (91.800025 40.068424 94.133195) to (120.55277 66.833676 122.80588)
  create_atoms CPU = 0.000 seconds
create_atoms 2 single 102.68090000000001 49.1496 113.69867434284006
Created 1 atoms
  using lattice units in orthogonal box = (91.800025 40.068424 94.133195) to (120.55277 66.833676 122.80588)
  create_atoms CPU = 0.000 seconds
create_atoms 1 single 101.6336 51.2325 111.07336287711314
Created 1 atoms
  using lattice units in orthogonal box = (91.800025 40.068424 94.133195) to (120.55277 66.833676 122.80588)
  create_atoms CPU = 0.000 seconds
create_atoms 1 single 104.2968 51.5423 113.76558789672558
Created 1 atoms
  using lattice units in orthogonal box = (91.800025 40.068424 94.133195) to (120.55277 66.833676 122.80588)
  create_atoms CPU = 0.000 seconds
create_atoms 1 single 106.6455 51.2118 112.22239406024093
Created 1 atoms
  using lattice units in orthogonal box = (91.800025 40.068424 94.133195) to (120.55277 66.833676 122.80588)
  create_atoms CPU = 0.000 seconds
create_atoms 4 single 107.0848 48.2519 112.3875868963958
Created 1 atoms
  using lattice units in orthogonal box = (91.800025 40.068424 94.133195) to (120.55277 66.833676 122.80588)
  create_atoms CPU = 0.000 seconds
create_atoms 1 single 105.8918 49.1942 115.34328403443244
Created 1 atoms
  using lattice units in orthogonal box = (91.800025 40.068424 94.133195) to (120.55277 66.833676 122.80588)
  create_atoms CPU = 0.000 seconds
create_atoms 2 single 107.2644 51.7437 114.8142487490251
Created 1 atoms
  using lattice units in orthogonal box = (91.800025 40.068424 94.133195) to (120.55277 66.833676 122.80588)
  create_atoms CPU = 0.000 seconds
create_atoms 4 single 110.2529 47.7766 113.68299147864815
Created 1 atoms
  using lattice units in orthogonal box = (91.800025 40.068424 94.133195) to (120.55277 66.833676 122.80588)
  create_atoms CPU = 0.000 seconds
create_atoms 1 single 109.658 50.7653 112.53918791691765
Created 1 atoms
  using lattice units in orthogonal box = (91.800025 40.068424 94.133195) to (120.55277 66.833676 122.80588)
  create_atoms CPU = 0.000 seconds
create_atoms 2 single 110.10040000000001 51.5029 115.40496996692065
Created 1 atoms
  using lattice units in orthogonal box = (91.800025 40.068424 94.133195) to (120.55277 66.833676 122.80588)
  create_atoms CPU = 0.000 seconds
create_atoms 4 single 108.63950000000001 49.2459 114.7285157581093
Created 1 atoms
  using lattice units in orthogonal box = (91.800025 40.068424 94.133195) to (120.55277 66.833676 122.80588)
  create_atoms CPU = 0.000 seconds
create_atoms 3 single 112.5624 51.3899 112.53918791691765
Created 1 atoms
  using lattice units in orthogonal box = (91.800025 40.068424 94.133195) to (120.55277 66.833676 122.80588)
  create_atoms CPU = 0.000 seconds
create_atoms 1 single 110.5241 53.2231 111.28560430584375
Created 1 atoms
  using lattice units in orthogonal box = (91.800025 40.068424 94.133195) to (120.55277 66.833676 122.80588)
  create_atoms CPU = 0.000 seconds
create_atoms 1 single 111.59179999999999 48.968 111.39433883090771
Created 1 atoms
  using lattice units in orthogonal box = (91.800025 40.068424 94.133195) to (120.55277 66.833676 122.80588)
  create_atoms CPU = 0.000 seconds
create_atoms 3 single 108.92490000000001 48.4646 111.19150712069225
Created 1 atoms
  using lattice units in orthogonal box = (91.800025 40.068424 94.133195) to (120.55277 66.833676 122.80588)
  create_atoms CPU = 0.000 seconds
create_atoms 3 single 111.5604 52.4879 114.14093111305213
Created 1 atoms
  using lattice units in orthogonal box = (91.800025 40.068424 94.133195) to (120.55277 66.833676 122.80588)
  create_atoms CPU = 0.000 seconds
create_atoms 1 single 112.4813 49.7533 114.66787534990054
Created 1 atoms
  using lattice units in orthogonal box = (91.800025 40.068424 94.133195) to (120.55277 66.833676 122.80588)
  create_atoms CPU = 0.000 seconds
create_atoms 1 single 115.7981 48.2096 115.43215359818664
Created 1 atoms
  using lattice units in orthogonal box = (91.800025 40.068424 94.133195) to (120.55277 66.833676 122.80588)
  create_atoms CPU = 0.000 seconds
create_atoms 1 single 116.9212 48.9659 113.08076949367853
Created 1 atoms
  using lattice units in orthogonal box = (91.800025 40.068424 94.133195) to (120.55277 66.833676 122.80588)
  create_atoms CPU = 0.000 seconds
create_atoms 3 single 117.74069999999999 50.9322 114.97944158517996
Created 1 atoms
  using lattice units in orthogonal box = (91.800025 40.068424 94.133195) to (120.55277 66.833676 122.80588)
  create_atoms CPU = 0.000 seconds
create_atoms 2 single 113.1747 53.3009 111.14968614951381
Created 1 atoms
  using lattice units in orthogonal box = (91.800025 40.068424 94.133195) to (120.55277 66.833676 122.80588)
  create_atoms CPU = 0.000 seconds
create_atoms 1 single 115.28590000000001 51.269 115.54297917180952
Created 1 atoms
  using lattice units in orthogonal box = (91.800025 40.068424 94.133195) to (120.55277 66.833676 122.80588)
  create_atoms CPU = 0.000 seconds
create_atoms 2 single 114.27420000000001 49.4771 113.12363598913643
Created 1 atoms
  using lattice units in orthogonal box = (91.800025 40.068424 94.133195) to (120.55277 66.833676 122.80588)
  create_atoms CPU = 0.000 seconds
create_atoms 3 single 118.0889 51.2037 112.43986311036885
Created 1 atoms
  using lattice units in orthogonal box = (91.800025 40.068424 94.133195) to (120.55277 66.833676 122.80588)
  create_atoms CPU = 0.000 seconds
create_atoms 1 single 115.45790000000001 51.7203 112.66883292757085
Created 1 atoms
  using lattice units in orthogonal box = (91.800025 40.068424 94.133195) to (120.55277 66.833676 122.80588)
  create_atoms CPU = 0.000 seconds
create_atoms 3 single 106.3552 47.1781 117.18654333912244
Created 1 atoms
  using lattice units in orthogonal box = (91.800025 40.068424 94.133195) to (120.55277 66.833676 122.80588)
  create_atoms CPU = 0.000 seconds
create_atoms 5 single 109.03490000000001 47.7497 117.54934026409545
Created 1 atoms
  using lattice units in orthogonal box = (91.800025 40.068424 94.133195) to (120.55277 66.833676 122.80588)
  create_atoms CPU = 0.000 seconds
create_atoms 2 single 103.7206 47.7099 115.98419041774211
Created 1 atoms
  using lattice units in orthogonal box = (91.800025 40.068424 94.133195) to (120.55277 66.833676 122.80588)
  create_atoms CPU = 0.000 seconds
create_atoms 1 single 113.0197 46.9527 116.25393568184309
Created 1 atoms
  using lattice units in orthogonal box = (91.800025 40.068424 94.133195) to (120.55277 66.833676 122.80588)
  create_atoms CPU = 0.000 seconds
create_atoms 5 single 101.9792 52.5196 116.98371162890697
Created 1 atoms
  using lattice units in orthogonal box = (91.800025 40.068424 94.133195) to (120.55277 66.833676 122.80588)
  create_atoms CPU = 0.000 seconds
create_atoms 5 single 108.67009999999999 50.484 117.07885433833793
Created 1 atoms
  using lattice units in orthogonal box = (91.800025 40.068424 94.133195) to (120.55277 66.833676 122.80588)
  create_atoms CPU = 0.000 seconds
create_atoms 2 single 106.84060000000001 49.7047 118.27911621115932
Created 1 atoms
  using lattice units in orthogonal box = (91.800025 40.068424 94.133195) to (120.55277 66.833676 122.80588)
  create_atoms CPU = 0.000 seconds
create_atoms 1 single 103.5706 50.3605 116.32189476000808
Created 1 atoms
  using lattice units in orthogonal box = (91.800025 40.068424 94.133195) to (120.55277 66.833676 122.80588)
  create_atoms CPU = 0.000 seconds
create_atoms 4 single 104.8651 51.9582 118.87611057473164
Created 1 atoms
  using lattice units in orthogonal box = (91.800025 40.068424 94.133195) to (120.55277 66.833676 122.80588)
  create_atoms CPU = 0.000 seconds
create_atoms 1 single 106.14450000000001 52.2577 116.84465689973864
Created 1 atoms
  using lattice units in orthogonal box = (91.800025 40.068424 94.133195) to (120.55277 66.833676 122.80588)
  create_atoms CPU = 0.000 seconds
create_atoms 1 single 108.8539 52.0968 119.44069368564064
Created 1 atoms
  using lattice units in orthogonal box = (91.800025 40.068424 94.133195) to (120.55277 66.833676 122.80588)
  create_atoms CPU = 0.000 seconds
create_atoms 1 single 113.70909999999999 50.6882 119.71252999830054
Created 1 atoms
  using lattice units in orthogonal box = (91.800025 40.068424 94.133195) to (120.55277 66.833676 122.80588)
  create_atoms CPU = 0.000 seconds
create_atoms 1 single 114.8135 49.2872 117.67898527474864
Created 1 atoms
  using lattice units in orthogonal box = (91.800025 40.068424 94.133195) to (120.55277 66.833676 122.80588)
  create_atoms CPU = 0.000 seconds
create_atoms 1 single 113.0792 51.941 116.8728860552841
Created 1 atoms
  using lattice units in orthogonal box = (91.800025 40.068424 94.133195) to (120.55277 66.833676 122.80588)
  create_atoms CPU = 0.000 seconds
create_atoms 1 single 112.03 52.6149 120.80301182177853
Created 1 atoms
  using lattice units in orthogonal box = (91.800025 40.068424 94.133195) to (120.55277 66.833676 122.80588)
  create_atoms CPU = 0.000 seconds
create_atoms 1 single 110.80300000000001 49.7438 119.73134943533084
Created 1 atoms
  using lattice units in orthogonal box = (91.800025 40.068424 94.133195) to (120.55277 66.833676 122.80588)
  create_atoms CPU = 0.000 seconds
create_atoms 3 single 111.1131 51.7345 118.0888307922974
Created 1 atoms
  using lattice units in orthogonal box = (91.800025 40.068424 94.133195) to (120.55277 66.833676 122.80588)
  create_atoms CPU = 0.000 seconds
create_atoms 1 single 111.4588 49.194 117.09558272680931
Created 1 atoms
  using lattice units in orthogonal box = (91.800025 40.068424 94.133195) to (120.55277 66.833676 122.80588)
  create_atoms CPU = 0.000 seconds
create_atoms 2 single 116.05160000000001 51.8657 118.4788113485364
Created 1 atoms
  using lattice units in orthogonal box = (91.800025 40.068424 94.133195) to (120.55277 66.833676 122.80588)
  create_atoms CPU = 0.000 seconds
create_atoms 2 single 95.71602 55.3678 99.26918465714097
Created 1 atoms
  using lattice units in orthogonal box = (91.800025 40.068424 94.133195) to (120.55277 66.833676 122.80588)
  create_atoms CPU = 0.000 seconds
create_atoms 1 single 96.65174 58.1142 99.24806506669586
Created 1 atoms
  using lattice units in orthogonal box = (91.800025 40.068424 94.133195) to (120.55277 66.833676 122.80588)
  create_atoms CPU = 0.000 seconds
create_atoms 1 single 98.65054 55.7886 98.881086044605
Created 1 atoms
  using lattice units in orthogonal box = (91.800025 40.068424 94.133195) to (120.55277 66.833676 122.80588)
  create_atoms CPU = 0.000 seconds
create_atoms 4 single 99.1179 54.338 96.63780915059318
Created 1 atoms
  using lattice units in orthogonal box = (91.800025 40.068424 94.133195) to (120.55277 66.833676 122.80588)
  create_atoms CPU = 0.000 seconds
create_atoms 1 single 99.27954 58.7792 98.66152594591817
Created 1 atoms
  using lattice units in orthogonal box = (91.800025 40.068424 94.133195) to (120.55277 66.833676 122.80588)
  create_atoms CPU = 0.000 seconds
create_atoms 2 single 99.986 56.9269 97.02099379901568
Created 1 atoms
  using lattice units in orthogonal box = (91.800025 40.068424 94.133195) to (120.55277 66.833676 122.80588)
  create_atoms CPU = 0.000 seconds
create_atoms 1 single 101.8491 55.352 99.25789299492281
Created 1 atoms
  using lattice units in orthogonal box = (91.800025 40.068424 94.133195) to (120.55277 66.833676 122.80588)
  create_atoms CPU = 0.000 seconds
create_atoms 2 single 101.12246 57.1522 100.78373112836839
Created 1 atoms
  using lattice units in orthogonal box = (91.800025 40.068424 94.133195) to (120.55277 66.833676 122.80588)
  create_atoms CPU = 0.000 seconds
create_atoms 4 single 96.67274 53.4531 97.82824309518764
Created 1 atoms
  using lattice units in orthogonal box = (91.800025 40.068424 94.133195) to (120.55277 66.833676 122.80588)
  create_atoms CPU = 0.000 seconds
create_atoms 1 single 105.78 58.9801 99.63637278408774
Created 1 atoms
  using lattice units in orthogonal box = (91.800025 40.068424 94.133195) to (120.55277 66.833676 122.80588)
  create_atoms CPU = 0.000 seconds
create_atoms 3 single 104.2523 57.2047 100.84918094826266
Created 1 atoms
  using lattice units in orthogonal box = (91.800025 40.068424 94.133195) to (120.55277 66.833676 122.80588)
  create_atoms CPU = 0.000 seconds
create_atoms 1 single 104.75762 56.3587 98.44374323850641
Created 1 atoms
  using lattice units in orthogonal box = (91.800025 40.068424 94.133195) to (120.55277 66.833676 122.80588)
  create_atoms CPU = 0.000 seconds
create_atoms 2 single 104.35068 54.1392 99.6705614280261
Created 1 atoms
  using lattice units in orthogonal box = (91.800025 40.068424 94.133195) to (120.55277 66.833676 122.80588)
  create_atoms CPU = 0.000 seconds
create_atoms 1 single 102.36550000000001 58.3912 98.67553597126295
Created 1 atoms
  using lattice units in orthogonal box = (91.800025 40.068424 94.133195) to (120.55277 66.833676 122.80588)
  create_atoms CPU = 0.000 seconds
create_atoms 1 single 102.05982 55.2735 96.5283427585336
Created 1 atoms
  using lattice units in orthogonal box = (91.800025 40.068424 94.133195) to (120.55277 66.833676 122.80588)
  create_atoms CPU = 0.000 seconds
create_atoms 3 single 107.83126 57.1754 99.93894751056379
Created 1 atoms
  using lattice units in orthogonal box = (91.800025 40.068424 94.133195) to (120.55277 66.833676 122.80588)
  create_atoms CPU = 0.000 seconds
create_atoms 1 single 107.408 55.0384 98.28294160432529
Created 1 atoms
  using lattice units in orthogonal box = (91.800025 40.068424 94.133195) to (120.55277 66.833676 122.80588)
  create_atoms CPU = 0.000 seconds
create_atoms 1 single 110.34804000000001 56.6065 99.68927631262846
Created 1 atoms
  using lattice units in orthogonal box = (91.800025 40.068424 94.133195) to (120.55277 66.833676 122.80588)
  create_atoms CPU = 0.000 seconds
create_atoms 2 single 110.42924 53.8458 98.63329679037271
Created 1 atoms
  using lattice units in orthogonal box = (91.800025 40.068424 94.133195) to (120.55277 66.833676 122.80588)
  create_atoms CPU = 0.000 seconds
create_atoms 1 single 109.62192000000002 53.9111 100.81446954218455
Created 1 atoms
  using lattice units in orthogonal box = (91.800025 40.068424 94.133195) to (120.55277 66.833676 122.80588)
  create_atoms CPU = 0.000 seconds
create_atoms 2 single 100.71038 61.0958 98.57955684240841
Created 1 atoms
  using lattice units in orthogonal box = (91.800025 40.068424 94.133195) to (120.55277 66.833676 122.80588)
  create_atoms CPU = 0.000 seconds
create_atoms 1 single 98.96502 61.3303 100.39050944686305
Created 1 atoms
  using lattice units in orthogonal box = (91.800025 40.068424 94.133195) to (120.55277 66.833676 122.80588)
  create_atoms CPU = 0.000 seconds
create_atoms 1 single 101.81254 62.8228 100.92665429737073
Created 1 atoms
  using lattice units in orthogonal box = (91.800025 40.068424 94.133195) to (120.55277 66.833676 122.80588)
  create_atoms CPU = 0.000 seconds
create_atoms 1 single 103.74044 61.2166 99.66313820564194
Created 1 atoms
  using lattice units in orthogonal box = (91.800025 40.068424 94.133195) to (120.55277 66.833676 122.80588)
  create_atoms CPU = 0.000 seconds
create_atoms 3 single 94.74014 55.7261 103.42859389812124
Created 1 atoms
  using lattice units in orthogonal box = (91.800025 40.068424 94.133195) to (120.55277 66.833676 122.80588)
  create_atoms CPU = 0.000 seconds
create_atoms 1 single 95.87594 54.2691 101.87599034312144
Created 1 atoms
  using lattice units in orthogonal box = (91.800025 40.068424 94.133195) to (120.55277 66.833676 122.80588)
  create_atoms CPU = 0.000 seconds
create_atoms 5 single 95.28776 58.2243 104.14509168683595
Created 1 atoms
  using lattice units in orthogonal box = (91.800025 40.068424 94.133195) to (120.55277 66.833676 122.80588)
  create_atoms CPU = 0.000 seconds
create_atoms 1 single 95.37938 57.3053 101.46154451874304
Created 1 atoms
  using lattice units in orthogonal box = (91.800025 40.068424 94.133195) to (120.55277 66.833676 122.80588)
  create_atoms CPU = 0.000 seconds
create_atoms 2 single 97.40526 56.186 104.32649014932247
Created 1 atoms
  using lattice units in orthogonal box = (91.800025 40.068424 94.133195) to (120.55277 66.833676 122.80588)
  create_atoms CPU = 0.000 seconds
create_atoms 1 single 98.10324 58.4712 103.54987471453873
Created 1 atoms
  using lattice units in orthogonal box = (91.800025 40.068424 94.133195) to (120.55277 66.833676 122.80588)
  create_atoms CPU = 0.000 seconds
create_atoms 4 single 96.9008 53.8097 104.84726579292204
Created 1 atoms
  using lattice units in orthogonal box = (91.800025 40.068424 94.133195) to (120.55277 66.833676 122.80588)
  create_atoms CPU = 0.000 seconds
create_atoms 1 single 99.17932 54.3718 103.78323573371446
Created 1 atoms
  using lattice units in orthogonal box = (91.800025 40.068424 94.133195) to (120.55277 66.833676 122.80588)
  create_atoms CPU = 0.000 seconds
create_atoms 1 single 98.12148 56.2245 101.50911587345853
Created 1 atoms
  using lattice units in orthogonal box = (91.800025 40.068424 94.133195) to (120.55277 66.833676 122.80588)
  create_atoms CPU = 0.000 seconds
create_atoms 5 single 99.38984 58.7773 101.50848855889085
Created 1 atoms
  using lattice units in orthogonal box = (91.800025 40.068424 94.133195) to (120.55277 66.833676 122.80588)
  create_atoms CPU = 0.000 seconds
create_atoms 3 single 100.79314 56.7029 103.12068699781993
Created 1 atoms
  using lattice units in orthogonal box = (91.800025 40.068424 94.133195) to (120.55277 66.833676 122.80588)
  create_atoms CPU = 0.000 seconds
create_atoms 1 single 103.36242 57.618 103.26151911826334
Created 1 atoms
  using lattice units in orthogonal box = (91.800025 40.068424 94.133195) to (120.55277 66.833676 122.80588)
  create_atoms CPU = 0.000 seconds
create_atoms 1 single 102.71270000000001 54.8251 104.65279827694229
Created 1 atoms
  using lattice units in orthogonal box = (91.800025 40.068424 94.133195) to (120.55277 66.833676 122.80588)
  create_atoms CPU = 0.000 seconds
create_atoms 1 single 100.85346 54.5261 101.60394492560566
Created 1 atoms
  using lattice units in orthogonal box = (91.800025 40.068424 94.133195) to (120.55277 66.833676 122.80588)
  create_atoms CPU = 0.000 seconds
create_atoms 1 single 100.5448 56.8582 105.56240440007346
Created 1 atoms
  using lattice units in orthogonal box = (91.800025 40.068424 94.133195) to (120.55277 66.833676 122.80588)
  create_atoms CPU = 0.000 seconds
create_atoms 2 single 106.10084 57.1405 103.32665528087378
Created 1 atoms
  using lattice units in orthogonal box = (91.800025 40.068424 94.133195) to (120.55277 66.833676 122.80588)
  create_atoms CPU = 0.000 seconds
create_atoms 1 single 105.9215 59.043 105.27174865038327
Created 1 atoms
  using lattice units in orthogonal box = (91.800025 40.068424 94.133195) to (120.55277 66.833676 122.80588)
  create_atoms CPU = 0.000 seconds
create_atoms 1 single 105.8444 56.0121 105.67218444941689
Created 1 atoms
  using lattice units in orthogonal box = (91.800025 40.068424 94.133195) to (120.55277 66.833676 122.80588)
  create_atoms CPU = 0.000 seconds
create_atoms 3 single 106.8537 54.6978 103.98366273808716
Created 1 atoms
  using lattice units in orthogonal box = (91.800025 40.068424 94.133195) to (120.55277 66.833676 122.80588)
  create_atoms CPU = 0.000 seconds
create_atoms 1 single 104.03 55.0291 102.28886788108063
Created 1 atoms
  using lattice units in orthogonal box = (91.800025 40.068424 94.133195) to (120.55277 66.833676 122.80588)
  create_atoms CPU = 0.000 seconds
create_atoms 1 single 108.8662 56.6459 104.69357372384127
Created 1 atoms
  using lattice units in orthogonal box = (91.800025 40.068424 94.133195) to (120.55277 66.833676 122.80588)
  create_atoms CPU = 0.000 seconds
create_atoms 1 single 106.73698 55.5677 101.36797009573127
Created 1 atoms
  using lattice units in orthogonal box = (91.800025 40.068424 94.133195) to (120.55277 66.833676 122.80588)
  create_atoms CPU = 0.000 seconds
create_atoms 2 single 107.68448000000001 58.1829 102.2096171406975
Created 1 atoms
  using lattice units in orthogonal box = (91.800025 40.068424 94.133195) to (120.55277 66.833676 122.80588)
  create_atoms CPU = 0.000 seconds
create_atoms 3 single 108.9371 54.243 103.30198090787849
Created 1 atoms
  using lattice units in orthogonal box = (91.800025 40.068424 94.133195) to (120.55277 66.833676 122.80588)
  create_atoms CPU = 0.000 seconds
create_atoms 5 single 111.08166000000001 58.5096 104.37406150403795
Created 1 atoms
  using lattice units in orthogonal box = (91.800025 40.068424 94.133195) to (120.55277 66.833676 122.80588)
  create_atoms CPU = 0.000 seconds
create_atoms 1 single 109.97068 56.3555 102.41924475872945
Created 1 atoms
  using lattice units in orthogonal box = (91.800025 40.068424 94.133195) to (120.55277 66.833676 122.80588)
  create_atoms CPU = 0.000 seconds
create_atoms 1 single 112.7715 57.5384 102.5925926842641
Created 1 atoms
  using lattice units in orthogonal box = (91.800025 40.068424 94.133195) to (120.55277 66.833676 122.80588)
  create_atoms CPU = 0.000 seconds
create_atoms 3 single 112.3203 56.1715 104.82217321021498
Created 1 atoms
  using lattice units in orthogonal box = (91.800025 40.068424 94.133195) to (120.55277 66.833676 122.80588)
  create_atoms CPU = 0.000 seconds
create_atoms 1 single 112.8237 54.8286 101.48224589947638
Created 1 atoms
  using lattice units in orthogonal box = (91.800025 40.068424 94.133195) to (120.55277 66.833676 122.80588)
  create_atoms CPU = 0.000 seconds
create_atoms 1 single 114.918 55.4968 104.69566477240019
Created 1 atoms
  using lattice units in orthogonal box = (91.800025 40.068424 94.133195) to (120.55277 66.833676 122.80588)
  create_atoms CPU = 0.000 seconds
create_atoms 1 single 114.1606 58.4516 105.61990823544384
Created 1 atoms
  using lattice units in orthogonal box = (91.800025 40.068424 94.133195) to (120.55277 66.833676 122.80588)
  create_atoms CPU = 0.000 seconds
create_atoms 1 single 110.8771 54.4292 105.95133943203301
Created 1 atoms
  using lattice units in orthogonal box = (91.800025 40.068424 94.133195) to (120.55277 66.833676 122.80588)
  create_atoms CPU = 0.000 seconds
create_atoms 1 single 111.8963 53.6844 103.68725660485993
Created 1 atoms
  using lattice units in orthogonal box = (91.800025 40.068424 94.133195) to (120.55277 66.833676 122.80588)
  create_atoms CPU = 0.000 seconds
create_atoms 3 single 96.84324000000001 59.9522 101.25494892112152
Created 1 atoms
  using lattice units in orthogonal box = (91.800025 40.068424 94.133195) to (120.55277 66.833676 122.80588)
  create_atoms CPU = 0.000 seconds
create_atoms 1 single 97.0257 60.5796 105.01977729903315
Created 1 atoms
  using lattice units in orthogonal box = (91.800025 40.068424 94.133195) to (120.55277 66.833676 122.80588)
  create_atoms CPU = 0.000 seconds
create_atoms 3 single 100.40972000000001 63.7456 103.98188534681208
Created 1 atoms
  using lattice units in orthogonal box = (91.800025 40.068424 94.133195) to (120.55277 66.833676 122.80588)
  create_atoms CPU = 0.000 seconds
create_atoms 1 single 98.8486 61.4154 103.44469497202493
Created 1 atoms
  using lattice units in orthogonal box = (91.800025 40.068424 94.133195) to (120.55277 66.833676 122.80588)
  create_atoms CPU = 0.000 seconds
create_atoms 3 single 101.19282 61.589 102.8793799941203
Created 1 atoms
  using lattice units in orthogonal box = (91.800025 40.068424 94.133195) to (120.55277 66.833676 122.80588)
  create_atoms CPU = 0.000 seconds
create_atoms 1 single 101.43938 59.2504 104.20290917949015
Created 1 atoms
  using lattice units in orthogonal box = (91.800025 40.068424 94.133195) to (120.55277 66.833676 122.80588)
  create_atoms CPU = 0.000 seconds
create_atoms 1 single 103.1289 63.6245 103.98209445166796
Created 1 atoms
  using lattice units in orthogonal box = (91.800025 40.068424 94.133195) to (120.55277 66.833676 122.80588)
  create_atoms CPU = 0.000 seconds
create_atoms 2 single 103.77018 60.9246 103.73399154015183
Created 1 atoms
  using lattice units in orthogonal box = (91.800025 40.068424 94.133195) to (120.55277 66.833676 122.80588)
  create_atoms CPU = 0.000 seconds
create_atoms 1 single 101.90140000000001 61.8116 105.73909800330242
Created 1 atoms
  using lattice units in orthogonal box = (91.800025 40.068424 94.133195) to (120.55277 66.833676 122.80588)
  create_atoms CPU = 0.000 seconds
create_atoms 3 single 99.86200000000001 59.6506 105.85306014976366
Created 1 atoms
  using lattice units in orthogonal box = (91.800025 40.068424 94.133195) to (120.55277 66.833676 122.80588)
  create_atoms CPU = 0.000 seconds
create_atoms 1 single 101.97404 59.8175 101.20528651784711
Created 1 atoms
  using lattice units in orthogonal box = (91.800025 40.068424 94.133195) to (120.55277 66.833676 122.80588)
  create_atoms CPU = 0.000 seconds
create_atoms 1 single 108.63610000000001 59.6558 104.5879757716157
Created 1 atoms
  using lattice units in orthogonal box = (91.800025 40.068424 94.133195) to (120.55277 66.833676 122.80588)
  create_atoms CPU = 0.000 seconds
create_atoms 4 single 106.18620000000001 64.6275 104.8274008316123
Created 1 atoms
  using lattice units in orthogonal box = (91.800025 40.068424 94.133195) to (120.55277 66.833676 122.80588)
  create_atoms CPU = 0.000 seconds
create_atoms 1 single 105.0184 62.7851 102.33016609011936
Created 1 atoms
  using lattice units in orthogonal box = (91.800025 40.068424 94.133195) to (120.55277 66.833676 122.80588)
  create_atoms CPU = 0.000 seconds
create_atoms 1 single 107.45506 61.1209 101.64106103752653
Created 1 atoms
  using lattice units in orthogonal box = (91.800025 40.068424 94.133195) to (120.55277 66.833676 122.80588)
  create_atoms CPU = 0.000 seconds
create_atoms 1 single 108.32298 63.1676 103.82861148744306
Created 1 atoms
  using lattice units in orthogonal box = (91.800025 40.068424 94.133195) to (120.55277 66.833676 122.80588)
  create_atoms CPU = 0.000 seconds
create_atoms 2 single 106.68634 61.429 104.50443838168674
Created 1 atoms
  using lattice units in orthogonal box = (91.800025 40.068424 94.133195) to (120.55277 66.833676 122.80588)
  create_atoms CPU = 0.000 seconds
create_atoms 1 single 105.21778 59.6021 102.26293887895
Created 1 atoms
  using lattice units in orthogonal box = (91.800025 40.068424 94.133195) to (120.55277 66.833676 122.80588)
  create_atoms CPU = 0.000 seconds
create_atoms 3 single 110.26496 61.1266 103.54862008540337
Created 1 atoms
  using lattice units in orthogonal box = (91.800025 40.068424 94.133195) to (120.55277 66.833676 122.80588)
  create_atoms CPU = 0.000 seconds
create_atoms 3 single 112.40396 60.073 103.1471387620903
Created 1 atoms
  using lattice units in orthogonal box = (91.800025 40.068424 94.133195) to (120.55277 66.833676 122.80588)
  create_atoms CPU = 0.000 seconds
create_atoms 1 single 109.74032000000001 59.2015 101.33670891977539
Created 1 atoms
  using lattice units in orthogonal box = (91.800025 40.068424 94.133195) to (120.55277 66.833676 122.80588)
  create_atoms CPU = 0.000 seconds
create_atoms 4 single 113.1372 61.3351 105.50176399186473
Created 1 atoms
  using lattice units in orthogonal box = (91.800025 40.068424 94.133195) to (120.55277 66.833676 122.80588)
  create_atoms CPU = 0.000 seconds
create_atoms 1 single 95.9482 56.1 106.33818341543363
Created 1 atoms
  using lattice units in orthogonal box = (91.800025 40.068424 94.133195) to (120.55277 66.833676 122.80588)
  create_atoms CPU = 0.000 seconds
create_atoms 2 single 94.6369 54.5891 108.30690563365896
Created 1 atoms
  using lattice units in orthogonal box = (91.800025 40.068424 94.133195) to (120.55277 66.833676 122.80588)
  create_atoms CPU = 0.000 seconds
create_atoms 1 single 97.754 54.5014 109.10359513460836
Created 1 atoms
  using lattice units in orthogonal box = (91.800025 40.068424 94.133195) to (120.55277 66.833676 122.80588)
  create_atoms CPU = 0.000 seconds
create_atoms 1 single 98.3155 57.4176 109.02831738648716
Created 1 atoms
  using lattice units in orthogonal box = (91.800025 40.068424 94.133195) to (120.55277 66.833676 122.80588)
  create_atoms CPU = 0.000 seconds
create_atoms 3 single 96.5413 55.3355 110.89771479816368
Created 1 atoms
  using lattice units in orthogonal box = (91.800025 40.068424 94.133195) to (120.55277 66.833676 122.80588)
  create_atoms CPU = 0.000 seconds
create_atoms 1 single 95.36760000000001 57.1943 108.85998797749392
Created 1 atoms
  using lattice units in orthogonal box = (91.800025 40.068424 94.133195) to (120.55277 66.833676 122.80588)
  create_atoms CPU = 0.000 seconds
create_atoms 3 single 97.9761 58.0451 106.1782182006761
Created 1 atoms
  using lattice units in orthogonal box = (91.800025 40.068424 94.133195) to (120.55277 66.833676 122.80588)
  create_atoms CPU = 0.000 seconds
create_atoms 5 single 99.0321 55.49 107.07841460529212
Created 1 atoms
  using lattice units in orthogonal box = (91.800025 40.068424 94.133195) to (120.55277 66.833676 122.80588)
  create_atoms CPU = 0.000 seconds
create_atoms 3 single 101.0017 56.44 110.31535777450382
Created 1 atoms
  using lattice units in orthogonal box = (91.800025 40.068424 94.133195) to (120.55277 66.833676 122.80588)
  create_atoms CPU = 0.000 seconds
create_atoms 3 single 103.2782 53.61 109.0649107362683
Created 1 atoms
  using lattice units in orthogonal box = (91.800025 40.068424 94.133195) to (120.55277 66.833676 122.80588)
  create_atoms CPU = 0.000 seconds
create_atoms 1 single 102.5384 56.16 108.55051279077341
Created 1 atoms
  using lattice units in orthogonal box = (91.800025 40.068424 94.133195) to (120.55277 66.833676 122.80588)
  create_atoms CPU = 0.000 seconds
create_atoms 1 single 100.8977 53.9164 109.610674410147
Created 1 atoms
  using lattice units in orthogonal box = (91.800025 40.068424 94.133195) to (120.55277 66.833676 122.80588)
  create_atoms CPU = 0.000 seconds
create_atoms 2 single 100.3595 57.7438 107.97442891279032
Created 1 atoms
  using lattice units in orthogonal box = (91.800025 40.068424 94.133195) to (120.55277 66.833676 122.80588)
  create_atoms CPU = 0.000 seconds
create_atoms 1 single 105.6318 56.8836 109.6294938471773
Created 1 atoms
  using lattice units in orthogonal box = (91.800025 40.068424 94.133195) to (120.55277 66.833676 122.80588)
  create_atoms CPU = 0.000 seconds
create_atoms 4 single 103.8383 57.3964 106.42287088207
Created 1 atoms
  using lattice units in orthogonal box = (91.800025 40.068424 94.133195) to (120.55277 66.833676 122.80588)
  create_atoms CPU = 0.000 seconds
create_atoms 2 single 104.3392 54.9466 107.47048621009006
Created 1 atoms
  using lattice units in orthogonal box = (91.800025 40.068424 94.133195) to (120.55277 66.833676 122.80588)
  create_atoms CPU = 0.000 seconds
create_atoms 1 single 105.9518 54.0307 110.82348257432193
Created 1 atoms
  using lattice units in orthogonal box = (91.800025 40.068424 94.133195) to (120.55277 66.833676 122.80588)
  create_atoms CPU = 0.000 seconds
create_atoms 1 single 101.252 53.7751 106.58283609682753
Created 1 atoms
  using lattice units in orthogonal box = (91.800025 40.068424 94.133195) to (120.55277 66.833676 122.80588)
  create_atoms CPU = 0.000 seconds
create_atoms 1 single 102.36160000000001 58.7684 110.40631838681693
Created 1 atoms
  using lattice units in orthogonal box = (91.800025 40.068424 94.133195) to (120.55277 66.833676 122.80588)
  create_atoms CPU = 0.000 seconds
create_atoms 3 single 108.2328 57.4908 109.58558182743994
Created 1 atoms
  using lattice units in orthogonal box = (91.800025 40.068424 94.133195) to (120.55277 66.833676 122.80588)
  create_atoms CPU = 0.000 seconds
create_atoms 1 single 107.2583 54.5606 108.45432455706299
Created 1 atoms
  using lattice units in orthogonal box = (91.800025 40.068424 94.133195) to (120.55277 66.833676 122.80588)
  create_atoms CPU = 0.000 seconds
create_atoms 4 single 110.4928 58.7765 109.07641150334237
Created 1 atoms
  using lattice units in orthogonal box = (91.800025 40.068424 94.133195) to (120.55277 66.833676 122.80588)
  create_atoms CPU = 0.000 seconds
create_atoms 4 single 108.3169 57.5789 107.10559823655811
Created 1 atoms
  using lattice units in orthogonal box = (91.800025 40.068424 94.133195) to (120.55277 66.833676 122.80588)
  create_atoms CPU = 0.000 seconds
create_atoms 2 single 110.9353 56.8902 107.2728821212719
Created 1 atoms
  using lattice units in orthogonal box = (91.800025 40.068424 94.133195) to (120.55277 66.833676 122.80588)
  create_atoms CPU = 0.000 seconds
create_atoms 1 single 110.17790000000001 55.7515 109.3472022917228
Created 1 atoms
  using lattice units in orthogonal box = (91.800025 40.068424 94.133195) to (120.55277 66.833676 122.80588)
  create_atoms CPU = 0.000 seconds
create_atoms 3 single 108.5114 54.8163 106.57760847543024
Created 1 atoms
  using lattice units in orthogonal box = (91.800025 40.068424 94.133195) to (120.55277 66.833676 122.80588)
  create_atoms CPU = 0.000 seconds
create_atoms 1 single 113.16010000000001 57.3931 110.23171583214693
Created 1 atoms
  using lattice units in orthogonal box = (91.800025 40.068424 94.133195) to (120.55277 66.833676 122.80588)
  create_atoms CPU = 0.000 seconds
create_atoms 2 single 114.7611 58.5525 108.98335984247032
Created 1 atoms
  using lattice units in orthogonal box = (91.800025 40.068424 94.133195) to (120.55277 66.833676 122.80588)
  create_atoms CPU = 0.000 seconds
create_atoms 3 single 115.2625 55.927 109.58976392455779
Created 1 atoms
  using lattice units in orthogonal box = (91.800025 40.068424 94.133195) to (120.55277 66.833676 122.80588)
  create_atoms CPU = 0.000 seconds
create_atoms 2 single 113.3545 56.808 107.3021568010968
Created 1 atoms
  using lattice units in orthogonal box = (91.800025 40.068424 94.133195) to (120.55277 66.833676 122.80588)
  create_atoms CPU = 0.000 seconds
create_atoms 1 single 112.76350000000001 54.7993 108.9300381042178
Created 1 atoms
  using lattice units in orthogonal box = (91.800025 40.068424 94.133195) to (120.55277 66.833676 122.80588)
  create_atoms CPU = 0.000 seconds
create_atoms 3 single 116.7288 54.3322 108.4511879842246
Created 1 atoms
  using lattice units in orthogonal box = (91.800025 40.068424 94.133195) to (120.55277 66.833676 122.80588)
  create_atoms CPU = 0.000 seconds
create_atoms 1 single 114.0604 54.2916 106.8233066811036
Created 1 atoms
  using lattice units in orthogonal box = (91.800025 40.068424 94.133195) to (120.55277 66.833676 122.80588)
  create_atoms CPU = 0.000 seconds
create_atoms 1 single 116.3139 56.9188 107.85733019349068
Created 1 atoms
  using lattice units in orthogonal box = (91.800025 40.068424 94.133195) to (120.55277 66.833676 122.80588)
  create_atoms CPU = 0.000 seconds
create_atoms 1 single 99.6238 63.0408 109.14437058150733
Created 1 atoms
  using lattice units in orthogonal box = (91.800025 40.068424 94.133195) to (120.55277 66.833676 122.80588)
  create_atoms CPU = 0.000 seconds
create_atoms 3 single 97.2279 61.8325 107.44330257882406
Created 1 atoms
  using lattice units in orthogonal box = (91.800025 40.068424 94.133195) to (120.55277 66.833676 122.80588)
  create_atoms CPU = 0.000 seconds
create_atoms 1 single 97.8201 60.4127 110.07175061738937
Created 1 atoms
  using lattice units in orthogonal box = (91.800025 40.068424 94.133195) to (120.55277 66.833676 122.80588)
  create_atoms CPU = 0.000 seconds
create_atoms 1 single 96.0646 59.2699 107.12546319786787
Created 1 atoms
  using lattice units in orthogonal box = (91.800025 40.068424 94.133195) to (120.55277 66.833676 122.80588)
  create_atoms CPU = 0.000 seconds
create_atoms 3 single 99.3724 61.9342 106.38209543517101
Created 1 atoms
  using lattice units in orthogonal box = (91.800025 40.068424 94.133195) to (120.55277 66.833676 122.80588)
  create_atoms CPU = 0.000 seconds
create_atoms 1 single 99.437 60.0617 108.28808619662865
Created 1 atoms
  using lattice units in orthogonal box = (91.800025 40.068424 94.133195) to (120.55277 66.833676 122.80588)
  create_atoms CPU = 0.000 seconds
create_atoms 1 single 102.4912 59.1729 107.5875849293897
Created 1 atoms
  using lattice units in orthogonal box = (91.800025 40.068424 94.133195) to (120.55277 66.833676 122.80588)
  create_atoms CPU = 0.000 seconds
create_atoms 2 single 102.7192 64.3653 109.43711737975646
Created 1 atoms
  using lattice units in orthogonal box = (91.800025 40.068424 94.133195) to (120.55277 66.833676 122.80588)
  create_atoms CPU = 0.000 seconds
create_atoms 1 single 103.63650000000001 64.2113 107.09200642092513
Created 1 atoms
  using lattice units in orthogonal box = (91.800025 40.068424 94.133195) to (120.55277 66.833676 122.80588)
  create_atoms CPU = 0.000 seconds
create_atoms 1 single 101.9882 61.7881 108.64565550020438
Created 1 atoms
  using lattice units in orthogonal box = (91.800025 40.068424 94.133195) to (120.55277 66.833676 122.80588)
  create_atoms CPU = 0.000 seconds
create_atoms 1 single 100.5744 64.214 106.76057522433594
Created 1 atoms
  using lattice units in orthogonal box = (91.800025 40.068424 94.133195) to (120.55277 66.833676 122.80588)
  create_atoms CPU = 0.000 seconds
create_atoms 1 single 105.5708 63.7287 110.09579767581698
Created 1 atoms
  using lattice units in orthogonal box = (91.800025 40.068424 94.133195) to (120.55277 66.833676 122.80588)
  create_atoms CPU = 0.000 seconds
create_atoms 2 single 104.5428 61.5842 108.33513478920442
Created 1 atoms
  using lattice units in orthogonal box = (91.800025 40.068424 94.133195) to (120.55277 66.833676 122.80588)
  create_atoms CPU = 0.000 seconds
create_atoms 2 single 104.7692 59.5324 109.89296596560152
Created 1 atoms
  using lattice units in orthogonal box = (91.800025 40.068424 94.133195) to (120.55277 66.833676 122.80588)
  create_atoms CPU = 0.000 seconds
create_atoms 3 single 103.973 60.0263 106.11653226818787
Created 1 atoms
  using lattice units in orthogonal box = (91.800025 40.068424 94.133195) to (120.55277 66.833676 122.80588)
  create_atoms CPU = 0.000 seconds
create_atoms 2 single 109.31400000000001 60.0473 110.59137618428156
Created 1 atoms
  using lattice units in orthogonal box = (91.800025 40.068424 94.133195) to (120.55277 66.833676 122.80588)
  create_atoms CPU = 0.000 seconds
create_atoms 1 single 107.8255 62.2858 109.10568618316728
Created 1 atoms
  using lattice units in orthogonal box = (91.800025 40.068424 94.133195) to (120.55277 66.833676 122.80588)
  create_atoms CPU = 0.000 seconds
create_atoms 5 single 106.7283 64.831 107.82700998938631
Created 1 atoms
  using lattice units in orthogonal box = (91.800025 40.068424 94.133195) to (120.55277 66.833676 122.80588)
  create_atoms CPU = 0.000 seconds
create_atoms 1 single 105.4727 62.2058 106.25558699735622
Created 1 atoms
  using lattice units in orthogonal box = (91.800025 40.068424 94.133195) to (120.55277 66.833676 122.80588)
  create_atoms CPU = 0.000 seconds
create_atoms 1 single 106.4081 59.448 108.35604527479364
Created 1 atoms
  using lattice units in orthogonal box = (91.800025 40.068424 94.133195) to (120.55277 66.833676 122.80588)
  create_atoms CPU = 0.000 seconds
create_atoms 1 single 109.9495 64.3817 108.90285447295182
Created 1 atoms
  using lattice units in orthogonal box = (91.800025 40.068424 94.133195) to (120.55277 66.833676 122.80588)
  create_atoms CPU = 0.000 seconds
create_atoms 1 single 110.8919 61.6138 109.18410050412687
Created 1 atoms
  using lattice units in orthogonal box = (91.800025 40.068424 94.133195) to (120.55277 66.833676 122.80588)
  create_atoms CPU = 0.000 seconds
create_atoms 4 single 108.44470000000001 60.4469 107.1568289262517
Created 1 atoms
  using lattice units in orthogonal box = (91.800025 40.068424 94.133195) to (120.55277 66.833676 122.80588)
  create_atoms CPU = 0.000 seconds
create_atoms 2 single 108.2237 63.0558 106.57760847543024
Created 1 atoms
  using lattice units in orthogonal box = (91.800025 40.068424 94.133195) to (120.55277 66.833676 122.80588)
  create_atoms CPU = 0.000 seconds
create_atoms 1 single 110.5955 62.0383 106.2127205018983
Created 1 atoms
  using lattice units in orthogonal box = (91.800025 40.068424 94.133195) to (120.55277 66.833676 122.80588)
  create_atoms CPU = 0.000 seconds
create_atoms 3 single 108.3169 64.6072 110.65619868960815
Created 1 atoms
  using lattice units in orthogonal box = (91.800025 40.068424 94.133195) to (120.55277 66.833676 122.80588)
[...]
Created 1 atoms
  using lattice units in orthogonal box = (91.800025 40.068424 94.133195) to (120.55277 66.833676 122.80588)
  create_atoms CPU = 0.000 seconds
create_atoms 2 single 106.93 56.1642 112.78697717114996
Created 1 atoms
  using lattice units in orthogonal box = (91.800025 40.068424 94.133195) to (120.55277 66.833676 122.80588)
  create_atoms CPU = 0.000 seconds
create_atoms 2 single 105.2432 58.2659 111.95787641753726
Created 1 atoms
  using lattice units in orthogonal box = (91.800025 40.068424 94.133195) to (120.55277 66.833676 122.80588)
  create_atoms CPU = 0.000 seconds
create_atoms 1 single 108.8631 58.8264 115.3495571801092
Created 1 atoms
  using lattice units in orthogonal box = (91.800025 40.068424 94.133195) to (120.55277 66.833676 122.80588)
  create_atoms CPU = 0.000 seconds
create_atoms 1 single 109.8686 56.6299 114.22875515252686
Created 1 atoms
  using lattice units in orthogonal box = (91.800025 40.068424 94.133195) to (120.55277 66.833676 122.80588)
  create_atoms CPU = 0.000 seconds
create_atoms 1 single 108.73920000000001 53.5739 113.53661807952359
Created 1 atoms
  using lattice units in orthogonal box = (91.800025 40.068424 94.133195) to (120.55277 66.833676 122.80588)
  create_atoms CPU = 0.000 seconds
create_atoms 5 single 108.5929 55.4806 111.33474394697842
Created 1 atoms
  using lattice units in orthogonal box = (91.800025 40.068424 94.133195) to (120.55277 66.833676 122.80588)
  create_atoms CPU = 0.000 seconds
create_atoms 1 single 107.9617 58.4514 111.98296900024434
Created 1 atoms
  using lattice units in orthogonal box = (91.800025 40.068424 94.133195) to (120.55277 66.833676 122.80588)
  create_atoms CPU = 0.000 seconds
create_atoms 2 single 111.5494 58.853 114.1952983755841
Created 1 atoms
  using lattice units in orthogonal box = (91.800025 40.068424 94.133195) to (120.55277 66.833676 122.80588)
  create_atoms CPU = 0.000 seconds
create_atoms 1 single 113.1372 56.5572 115.20632035382303
Created 1 atoms
  using lattice units in orthogonal box = (91.800025 40.068424 94.133195) to (120.55277 66.833676 122.80588)
  create_atoms CPU = 0.000 seconds
create_atoms 1 single 113.7713 53.7133 113.9046426258939
Created 1 atoms
  using lattice units in orthogonal box = (91.800025 40.068424 94.133195) to (120.55277 66.833676 122.80588)
  create_atoms CPU = 0.000 seconds
create_atoms 2 single 111.2384 54.9484 113.28046463105561
Created 1 atoms
  using lattice units in orthogonal box = (91.800025 40.068424 94.133195) to (120.55277 66.833676 122.80588)
  create_atoms CPU = 0.000 seconds
create_atoms 1 single 110.85700000000001 57.479 111.85646056242955
Created 1 atoms
  using lattice units in orthogonal box = (91.800025 40.068424 94.133195) to (120.55277 66.833676 122.80588)
  create_atoms CPU = 0.000 seconds
create_atoms 3 single 112.5088 55.4339 111.71113268758444
Created 1 atoms
  using lattice units in orthogonal box = (91.800025 40.068424 94.133195) to (120.55277 66.833676 122.80588)
  create_atoms CPU = 0.000 seconds
create_atoms 1 single 117.07830000000001 53.6155 115.14358889705535
Created 1 atoms
  using lattice units in orthogonal box = (91.800025 40.068424 94.133195) to (120.55277 66.833676 122.80588)
  create_atoms CPU = 0.000 seconds
create_atoms 3 single 115.41220000000001 55.8156 114.76197253505205
Created 1 atoms
  using lattice units in orthogonal box = (91.800025 40.068424 94.133195) to (120.55277 66.833676 122.80588)
  create_atoms CPU = 0.000 seconds
create_atoms 3 single 113.7705 57.3835 113.06090453236878
Created 1 atoms
  using lattice units in orthogonal box = (91.800025 40.068424 94.133195) to (120.55277 66.833676 122.80588)
  create_atoms CPU = 0.000 seconds
create_atoms 3 single 114.84500000000001 59.0298 112.11156848661805
Created 1 atoms
  using lattice units in orthogonal box = (91.800025 40.068424 94.133195) to (120.55277 66.833676 122.80588)
  create_atoms CPU = 0.000 seconds
create_atoms 4 single 118.54990000000001 55.8361 114.04997050073901
Created 1 atoms
  using lattice units in orthogonal box = (91.800025 40.068424 94.133195) to (120.55277 66.833676 122.80588)
  create_atoms CPU = 0.000 seconds
create_atoms 1 single 116.72890000000001 57.9711 114.43054133846286
Created 1 atoms
  using lattice units in orthogonal box = (91.800025 40.068424 94.133195) to (120.55277 66.833676 122.80588)
  create_atoms CPU = 0.000 seconds
create_atoms 1 single 115.4011 55.4305 112.26421503141938
Created 1 atoms
  using lattice units in orthogonal box = (91.800025 40.068424 94.133195) to (120.55277 66.833676 122.80588)
  create_atoms CPU = 0.000 seconds
create_atoms 1 single 116.8264 57.818 111.4162948407764
Created 1 atoms
  using lattice units in orthogonal box = (91.800025 40.068424 94.133195) to (120.55277 66.833676 122.80588)
  create_atoms CPU = 0.000 seconds
create_atoms 3 single 117.5776 53.5154 112.75874801560451
Created 1 atoms
  using lattice units in orthogonal box = (91.800025 40.068424 94.133195) to (120.55277 66.833676 122.80588)
  create_atoms CPU = 0.000 seconds
create_atoms 1 single 118.0232 55.2052 110.97403807056433
Created 1 atoms
  using lattice units in orthogonal box = (91.800025 40.068424 94.133195) to (120.55277 66.833676 122.80588)
  create_atoms CPU = 0.000 seconds
create_atoms 3 single 99.43769999999999 60.0731 112.88734750197821
Created 1 atoms
  using lattice units in orthogonal box = (91.800025 40.068424 94.133195) to (120.55277 66.833676 122.80588)
  create_atoms CPU = 0.000 seconds
create_atoms 1 single 101.1386 61.0161 111.55848614278311
Created 1 atoms
  using lattice units in orthogonal box = (91.800025 40.068424 94.133195) to (120.55277 66.833676 122.80588)
  create_atoms CPU = 0.000 seconds
create_atoms 1 single 102.23280000000001 59.62 114.6877403112103
Created 1 atoms
  using lattice units in orthogonal box = (91.800025 40.068424 94.133195) to (120.55277 66.833676 122.80588)
  create_atoms CPU = 0.000 seconds
create_atoms 3 single 103.7795 59.5602 113.04417614389739
Created 1 atoms
  using lattice units in orthogonal box = (91.800025 40.068424 94.133195) to (120.55277 66.833676 122.80588)
  create_atoms CPU = 0.000 seconds
create_atoms 1 single 103.7462 62.0571 114.05415259785684
Created 1 atoms
  using lattice units in orthogonal box = (91.800025 40.068424 94.133195) to (120.55277 66.833676 122.80588)
  create_atoms CPU = 0.000 seconds
create_atoms 1 single 104.1605 61.5647 111.34415366549358
Created 1 atoms
  using lattice units in orthogonal box = (91.800025 40.068424 94.133195) to (120.55277 66.833676 122.80588)
  create_atoms CPU = 0.000 seconds
create_atoms 2 single 102.2339 63.5422 111.5292114629582
Created 1 atoms
  using lattice units in orthogonal box = (91.800025 40.068424 94.133195) to (120.55277 66.833676 122.80588)
  create_atoms CPU = 0.000 seconds
create_atoms 2 single 105.12360000000001 63.9383 112.664650830453
Created 1 atoms
  using lattice units in orthogonal box = (91.800025 40.068424 94.133195) to (120.55277 66.833676 122.80588)
  create_atoms CPU = 0.000 seconds
create_atoms 1 single 106.5667 60.4638 113.61294135192425
Created 1 atoms
  using lattice units in orthogonal box = (91.800025 40.068424 94.133195) to (120.55277 66.833676 122.80588)
  create_atoms CPU = 0.000 seconds
create_atoms 4 single 106.9174 61.078 111.0179500903017
Created 1 atoms
  using lattice units in orthogonal box = (91.800025 40.068424 94.133195) to (120.55277 66.833676 122.80588)
  create_atoms CPU = 0.000 seconds
create_atoms 1 single 106.7894 62.8314 115.24186817932471
Created 1 atoms
  using lattice units in orthogonal box = (91.800025 40.068424 94.133195) to (120.55277 66.833676 122.80588)
  create_atoms CPU = 0.000 seconds
create_atoms 2 single 105.3506 59.9557 115.59630091006204
Created 1 atoms
  using lattice units in orthogonal box = (91.800025 40.068424 94.133195) to (120.55277 66.833676 122.80588)
  create_atoms CPU = 0.000 seconds
create_atoms 1 single 112.33680000000001 60.0193 112.08333933107261
Created 1 atoms
  using lattice units in orthogonal box = (91.800025 40.068424 94.133195) to (120.55277 66.833676 122.80588)
  create_atoms CPU = 0.000 seconds
create_atoms 1 single 110.59080000000002 62.931 111.71322373614336
Created 1 atoms
  using lattice units in orthogonal box = (91.800025 40.068424 94.133195) to (120.55277 66.833676 122.80588)
  create_atoms CPU = 0.000 seconds
create_atoms 1 single 109.83010000000002 60.8385 113.37142524336873
Created 1 atoms
  using lattice units in orthogonal box = (91.800025 40.068424 94.133195) to (120.55277 66.833676 122.80588)
  create_atoms CPU = 0.000 seconds
create_atoms 1 single 107.9989 63.2562 112.98458125996811
Created 1 atoms
  using lattice units in orthogonal box = (91.800025 40.068424 94.133195) to (120.55277 66.833676 122.80588)
  create_atoms CPU = 0.000 seconds
create_atoms 1 single 113.09580000000001 62.0337 114.28521346361777
Created 1 atoms
  using lattice units in orthogonal box = (91.800025 40.068424 94.133195) to (120.55277 66.833676 122.80588)
  create_atoms CPU = 0.000 seconds
create_atoms 3 single 109.32910000000001 61.5855 115.62453006560749
Created 1 atoms
  using lattice units in orthogonal box = (91.800025 40.068424 94.133195) to (120.55277 66.833676 122.80588)
  create_atoms CPU = 0.000 seconds
create_atoms 1 single 115.8001 61.0553 113.6924011971633
Created 1 atoms
  using lattice units in orthogonal box = (91.800025 40.068424 94.133195) to (120.55277 66.833676 122.80588)
  create_atoms CPU = 0.000 seconds
create_atoms 1 single 114.40690000000001 59.2653 115.13208812998128
Created 1 atoms
  using lattice units in orthogonal box = (91.800025 40.068424 94.133195) to (120.55277 66.833676 122.80588)
  create_atoms CPU = 0.000 seconds
create_atoms 1 single 113.6401 62.5792 111.3891112095104
Created 1 atoms
  using lattice units in orthogonal box = (91.800025 40.068424 94.133195) to (120.55277 66.833676 122.80588)
  create_atoms CPU = 0.000 seconds
create_atoms 1 single 103.77380000000001 54.9362 117.46047070034125
Created 1 atoms
  using lattice units in orthogonal box = (91.800025 40.068424 94.133195) to (120.55277 66.833676 122.80588)
  create_atoms CPU = 0.000 seconds
create_atoms 1 single 104.6228 57.8058 116.82792851126726
Created 1 atoms
  using lattice units in orthogonal box = (91.800025 40.068424 94.133195) to (120.55277 66.833676 122.80588)
  create_atoms CPU = 0.000 seconds
create_atoms 1 single 106.53490000000001 55.2748 117.01089526017296
Created 1 atoms
  using lattice units in orthogonal box = (91.800025 40.068424 94.133195) to (120.55277 66.833676 122.80588)
  create_atoms CPU = 0.000 seconds
create_atoms 1 single 110.60310000000001 57.8603 120.30429674047555
Created 1 atoms
  using lattice units in orthogonal box = (91.800025 40.068424 94.133195) to (120.55277 66.833676 122.80588)
  create_atoms CPU = 0.000 seconds
create_atoms 2 single 106.6802 54.0028 119.37691670459353
Created 1 atoms
  using lattice units in orthogonal box = (91.800025 40.068424 94.133195) to (120.55277 66.833676 122.80588)
  create_atoms CPU = 0.000 seconds
create_atoms 1 single 109.4505 55.0242 119.58393051192682
Created 1 atoms
  using lattice units in orthogonal box = (91.800025 40.068424 94.133195) to (120.55277 66.833676 122.80588)
  create_atoms CPU = 0.000 seconds
create_atoms 1 single 107.869 58.0064 117.71662414880922
Created 1 atoms
  using lattice units in orthogonal box = (91.800025 40.068424 94.133195) to (120.55277 66.833676 122.80588)
  create_atoms CPU = 0.000 seconds
create_atoms 1 single 108.93220000000001 53.4843 116.71710293764438
Created 1 atoms
  using lattice units in orthogonal box = (91.800025 40.068424 94.133195) to (120.55277 66.833676 122.80588)
  create_atoms CPU = 0.000 seconds
create_atoms 1 single 114.3395 53.6368 119.48460570537802
Created 1 atoms
  using lattice units in orthogonal box = (91.800025 40.068424 94.133195) to (120.55277 66.833676 122.80588)
  create_atoms CPU = 0.000 seconds
create_atoms 2 single 111.533 54.0796 118.53004203823
Created 1 atoms
  using lattice units in orthogonal box = (91.800025 40.068424 94.133195) to (120.55277 66.833676 122.80588)
  create_atoms CPU = 0.000 seconds
create_atoms 1 single 112.7787 55.5997 120.73923484073138
Created 1 atoms
  using lattice units in orthogonal box = (91.800025 40.068424 94.133195) to (120.55277 66.833676 122.80588)
  create_atoms CPU = 0.000 seconds
create_atoms 1 single 110.51140000000001 56.5254 117.63193668217288
Created 1 atoms
  using lattice units in orthogonal box = (91.800025 40.068424 94.133195) to (120.55277 66.833676 122.80588)
  create_atoms CPU = 0.000 seconds
create_atoms 1 single 113.17869999999999 58.1278 119.50447066668778
Created 1 atoms
  using lattice units in orthogonal box = (91.800025 40.068424 94.133195) to (120.55277 66.833676 122.80588)
  create_atoms CPU = 0.000 seconds
create_atoms 2 single 114.3874 58.856 117.70198680889678
Created 1 atoms
  using lattice units in orthogonal box = (91.800025 40.068424 94.133195) to (120.55277 66.833676 122.80588)
  create_atoms CPU = 0.000 seconds
create_atoms 2 single 111.8319 58.1112 116.53518171301813
Created 1 atoms
  using lattice units in orthogonal box = (91.800025 40.068424 94.133195) to (120.55277 66.833676 122.80588)
  create_atoms CPU = 0.000 seconds
create_atoms 2 single 113.5044 56.0298 117.99055151002804
Created 1 atoms
  using lattice units in orthogonal box = (91.800025 40.068424 94.133195) to (120.55277 66.833676 122.80588)
  create_atoms CPU = 0.000 seconds
create_atoms 1 single 111.52900000000001 54.4025 116.00405537905188
Created 1 atoms
  using lattice units in orthogonal box = (91.800025 40.068424 94.133195) to (120.55277 66.833676 122.80588)
  create_atoms CPU = 0.000 seconds
create_atoms 1 single 115.2278 54.3657 116.9826661046275
Created 1 atoms
  using lattice units in orthogonal box = (91.800025 40.068424 94.133195) to (120.55277 66.833676 122.80588)
  create_atoms CPU = 0.000 seconds
create_atoms 3 single 115.84389999999999 57.1514 116.92411674497768
Created 1 atoms
  using lattice units in orthogonal box = (91.800025 40.068424 94.133195) to (120.55277 66.833676 122.80588)
  create_atoms CPU = 0.000 seconds
create_atoms 3 single 117.81240000000001 55.9697 116.46408606201479
Created 1 atoms
  using lattice units in orthogonal box = (91.800025 40.068424 94.133195) to (120.55277 66.833676 122.80588)
  create_atoms CPU = 0.000 seconds
create_atoms 2 single 107.8327 60.6655 116.98580267746588
Created 1 atoms
  using lattice units in orthogonal box = (91.800025 40.068424 94.133195) to (120.55277 66.833676 122.80588)
  create_atoms CPU = 0.000 seconds
create_atoms 5 single 112.1529 60.7036 116.29366560446262
Created 1 atoms
  using lattice units in orthogonal box = (91.800025 40.068424 94.133195) to (120.55277 66.833676 122.80588)
  create_atoms CPU = 0.000 seconds
create_atoms 1 single 110.68060000000001 59.8506 118.10869575360715
Created 1 atoms
  using lattice units in orthogonal box = (91.800025 40.068424 94.133195) to (120.55277 66.833676 122.80588)
  create_atoms CPU = 0.000 seconds
group surface id  1 2 3 4 6 7 8 9 10 11 12 14 15 17 19 21 24 25 26 28 29 32 33 34 35 36 37 38 39 43 44 48 49 50 51 52 54 55 56 57 58 59 82 85 86 87 89 90 91 92 93 97 98 99 102 104 105 108 109 110 111 112 113 114 116 117 118 119 142 143 149 150 151 152 153 156 157 159 160 161 162 163 166 167 168 170 172 173 195 196 197 199 201 203 204 205 206 207 209 210 211 213 214 215 217 218 220 221 222 223 224 225 226 227 230 231 233 235 236 237 238 239 240 242 243 244 245 246 247 248 249 272 274 275 276 279 280 281 282 285 291 292 293 294 297 298 299 300 301 302 305 306 332 334 335 336 337 338 339 342 343 345 346 352 355 358 359 360 361 362 365 366 367 369 371 372 393 397 398 400 401 402 403 404 405 407 409 410 413 414 416 417 418 419 420 421 422 423 424 425 426 427 428 429 430 432 434 436 437 439 441 442 443 444 445 446 
216 atoms in group surface
    fix freeze surface setforce 0 0 0 
    minimize 0 1e-4 100000 100000
Neighbor list info ...
  update: every = 1 steps, delay = 0 steps, check = yes
  max neighbors/atom: 2000, page size: 100000
  master list distance cutoff = 9.1553683
  ghost atom cutoff = 9.1553683
  binsize = 4.5776842, bins = 7 6 7
  1 neighbor lists, perpetual/occasional/extra = 1 0 0
  (1) pair eam/alloy, perpetual
      attributes: half, newton on
      pair build: half/bin/atomonly/newton
      stencil: half/bin/3d
      bin: standard
Per MPI rank memory allocation (min/avg/max) = 4.09 | 4.284 | 4.342 Mbytes
   Step          Temp          E_pair         E_mol          TotEng         Press          Volume    
         0   0             -2185.5123      0             -2185.5123      14232.816      13903.121    
       283   0             -2251.804       0             -2251.804      -5663.0642      13903.121    
Loop time of 0.0660701 on 96 procs for 283 steps with 446 atoms

99.8% CPU use with 96 MPI tasks x 1 OpenMP threads

Minimization stats:
  Stopping criterion = linesearch alpha is zero
  Energy initial, next-to-last, final = 
     -2185.51226244619  -2251.80397383223  -2251.80397383223
  Force two-norm initial, final = 24.465819 0.010534937
  Force max component initial, final = 3.2494781 0.0016307408
  Final line search alpha, max atom move = 6.1035156e-05 9.9532518e-08
  Iterations, force evaluations = 283 530

MPI task timing breakdown:
Section |  min time  |  avg time  |  max time  |%varavg| %total
---------------------------------------------------------------
Pair    | 0.022608   | 0.025999   | 0.032483   |   1.6 | 39.35
Neigh   | 1.4724e-05 | 8.7011e-05 | 0.00022876 |   0.0 |  0.13
Comm    | 0.012751   | 0.023558   | 0.028796   |   2.4 | 35.66
Output  | 0          | 0          | 0          |   0.0 |  0.00
Modify  | 2.8231e-05 | 4.2335e-05 | 7.5581e-05 |   0.0 |  0.06
Other   |            | 0.01638    |            |       | 24.80

Nlocal:        4.64583 ave          11 max           0 min
Histogram: 22 10 9 9 6 6 8 12 7 7
Nghost:        217.625 ave         374 max          92 min
Histogram: 4 13 11 16 20 5 13 6 0 8
Neighs:        244.479 ave         783 max           0 min
Histogram: 29 15 10 12 8 3 4 7 3 5

Total # of neighbors = 23470
Ave neighs/atom = 52.623318
Neighbor list builds = 12
Dangerous builds = 0
    unfix freeze
    compute force all property/atom fx fy fz
    dump fcal all custom 1 dump.force id type x y z fx fy fz
    dump_modify fcal sort id
    run 1 
WARNING: No fixes with time integration, atoms won't move (src/verlet.cpp:60)
Per MPI rank memory allocation (min/avg/max) = 2.981 | 3.175 | 3.234 Mbytes
   Step          Temp          E_pair         E_mol          TotEng         Press          Volume    
       283   0             -2251.804       0             -2251.804      -5663.0642      13903.121    
       284   0             -2251.804       0             -2251.804      -5663.0642      13903.121    
Loop time of 0.000595263 on 96 procs for 1 steps with 446 atoms

Performance: 145.146 ns/day, 0.165 hours/ns, 1679.930 timesteps/s, 749.249 katom-step/s
99.6% CPU use with 96 MPI tasks x 1 OpenMP threads

MPI task timing breakdown:
Section |  min time  |  avg time  |  max time  |%varavg| %total
---------------------------------------------------------------
Pair    | 5.0034e-05 | 5.884e-05  | 8.0195e-05 |   0.0 |  9.88
Neigh   | 0          | 0          | 0          |   0.0 |  0.00
Comm    | 2.6741e-05 | 5.1782e-05 | 6.2284e-05 |   0.0 |  8.70
Output  | 0.00012326 | 0.00025566 | 0.00048803 |   0.0 | 42.95
Modify  | 1.63e-07   | 2.7523e-07 | 4.4e-07    |   0.0 |  0.05
Other   |            | 0.0002287  |            |       | 38.42

Nlocal:        4.64583 ave          11 max           0 min
Histogram: 22 10 9 10 5 5 9 13 6 7
Nghost:        217.615 ave         375 max          92 min
Histogram: 4 13 11 18 18 5 13 6 0 8
Neighs:        244.333 ave         780 max           0 min
Histogram: 29 14 13 9 9 3 5 5 3 6

Total # of neighbors = 23456
Ave neighs/atom = 52.591928
Neighbor list builds = 0
Dangerous builds = 0
    
Total wall time: 0:00:00
