# LAMMPS data file written by OVITO Pro 3.12.4

666 atoms
5 atom types

0.0 250.0 xlo xhi
0.0 90.51 ylo yhi
0.0 181.02 zlo zhi

Atoms  # atomic

1 1 17.2861 24.5747 94.57
2 4 14.0002 24.6521 95.4771
3 1 20.2114 23.7024 95.309
4 1 23.0962 22.9268 95.9731
5 2 25.1044 24.89 95.8084
6 4 12.3091 30.5007 95.7359
7 4 14.9611 25.8563 93.1903
8 1 13.2794 27.7387 94.718
9 1 15.5964 29.7738 94.944
10 2 14.9356 28.5593 92.6183
11 3 16.3302 30.7664 92.3253
12 1 15.7876 26.91 96.0553
13 1 17.3713 27.4572 93.4489
14 3 17.9291 28.5163 95.8508
15 2 17.537 31.346 96.2471
16 4 13.7609 31.2341 93.2961
17 3 19.6372 25.7631 93.6178
18 1 19.8752 28.2231 92.069
19 1 18.3803 30.3018 93.8556
20 2 19.1326 30.7403 91.3085
21 1 20.3119 27.939 94.9016
22 1 18.8088 26.0724 96.6014
23 1 22.4223 25.8256 95.1283
24 2 22.4365 27.7756 93.1568
25 3 21.7607 30.0317 91.5499
26 1 22.9191 29.069 96.0712
27 5 21.185 30.4657 94.0277
28 1 23.9761 29.9824 93.2301
29 1 25.2137 27.6465 94.7959
30 2 26.7208 29.9182 93.513
31 1 27.8458 29.402 96.0557
32 1 25.382 31.1856 95.6775
33 2 30.3445 30.7752 95.7734
34 3 16.1602 20.9943 102.031
35 2 13.8604 23.1732 98.3217
36 4 13.8895 22.4442 101.048
37 1 16.3706 22.1472 99.5176
38 1 16.2057 24.2695 97.3933
39 3 17.6044 24.5185 100.014
40 3 17.9686 22.6683 101.511
41 1 19.3769 21.0447 100.061
42 1 18.8809 23.2261 98.0175
43 1 21.4451 20.0612 101.982
44 1 20.393 23.9124 100.661
45 4 20.9462 21.2849 97.2674
46 1 22.5681 21.9007 99.6113
47 1 21.6619 24.5385 97.9461
48 2 23.2398 24.6489 100.405
49 2 24.0689 20.6123 101.764
50 2 25.4275 21.1431 99.5428
51 1 26.7473 20.8502 102.062
52 1 24.7563 23.536 98.328
53 1 27.5046 23.1581 100.405
54 3 25.0013 23.0384 101.126
55 2 27.3997 23.9564 97.7769
56 2 29.591 24.2191 102.071
57 4 12.2185 25.0442 101.396
58 1 12.424 30.4068 99.0667
59 1 10.5234 29.7275 101.32
60 4 9.54598 30.4913 98.7485
61 4 11.2658 28.2701 97.4292
62 4 11.8986 27.4005 100.098
63 4 9.39307 26.9497 101.776
64 4 7.95259 31.3085 101.643
65 1 15.1307 31.0808 100.215
66 4 13.3174 26.1215 97.7388
67 4 13.9324 28.8841 97.2191
68 1 14.8226 28.0411 99.7705
69 1 14.8876 25.0472 100.002
70 5 13.3222 29.2961 101.831
71 3 17.284 29.5753 100.603
72 2 16.9848 26.6286 98.572
73 1 16.7238 29.3583 97.9491
74 1 17.0858 26.7767 101.281
75 3 14.4076 26.8082 102.145
76 1 19.8193 30.1155 96.9063
77 1 19.6468 31.0902 100.5
78 3 19.7782 26.6624 101.404
79 1 19.1792 28.3076 99.2794
80 3 19.4686 25.7538 99.0897
81 1 21.9099 29.7521 99.0026
82 2 21.2874 28.9551 101.522
83 2 21.1271 27.3518 97.4125
84 1 21.9323 26.8697 99.9273
85 2 27.3963 25.456 101.899
86 2 24.2846 31.3549 100.353
87 3 23.8345 27.1398 101.752
88 3 24.029 30.8245 97.9206
89 2 25.4775 28.8206 97.2615
90 1 24.5464 28.7291 99.7786
91 1 23.9179 26.5771 97.6538
92 2 26.3994 30.5854 101.448
93 1 26.5565 30.8752 98.7385
94 1 27.6687 28.2303 99.4749
95 1 27.0131 26.5332 97.0711
96 1 25.7195 25.8 99.9335
97 1 26.4126 27.9995 102.089
98 3 31.4274 26.3649 98.2736
99 4 31.7861 25.4639 100.904
100 2 31.1018 30.959 100.544
101 2 33.1816 29.9561 99.6671
102 1 30.8091 28.2759 100.014
103 3 29.4681 27.7112 97.5175
104 1 29.5207 30.4147 98.3416
105 2 28.8626 29.694 101.435
106 1 29.0535 25.5997 99.4876
107 1 31.8875 28.9388 97.3745
108 2 33.1103 27.987 101.441
109 1 33.4681 31.0936 102.208
110 2 10.8106 24.8973 103.982
111 1 12.0232 23.215 105.75
112 4 11.75 22.7201 102.879
113 5 14.1785 21.4012 106.733
114 2 15.6281 23.8278 105.606
115 1 14.3612 22.0407 103.912
116 1 16.0759 19.7268 104.677
117 1 15.9624 19.3573 107.62
118 1 17.4872 22.2453 104.085
119 1 13.9102 24.1861 107.753
120 4 15.9652 24.1346 102.437
121 4 20.8251 23.7647 104.645
122 1 18.2107 20.8905 106.617
123 1 18.2962 24.1486 106.103
124 3 19.9905 22.2043 102.71
125 3 20.0003 20.9391 104.743
126 1 20.915 19.3505 107.21
127 2 18.4851 18.4524 105.573
128 1 23.3972 23.5879 107.759
129 3 23.326 20.8655 107.166
130 3 23.3643 23.5302 104.989
131 1 18.5432 19.786 102.803
132 1 20.9147 22.2575 106.966
133 1 22.6455 20.9508 104.655
134 3 23.2582 18.6321 105.993
135 1 18.7255 24.8123 102.973
136 5 20.9753 18.4974 104.39
137 1 22.6025 22.89 102.423
138 3 24.9503 22.2396 103.506
139 1 25.5019 21.9193 106.032
140 1 25.1901 19.5343 104.216
141 1 25.6437 19.1909 107.206
142 2 27.9202 23.4244 106.157
143 1 27.3728 23.3492 103.585
144 3 27.635 20.8564 104.74
145 1 28.049 21.0418 107.497
146 1 25.5224 24.8052 105.922
147 1 30.0797 22.1237 105.317
148 4 29.5519 21.6114 102.45
149 5 31.8263 23.4913 103.297
150 1 32.2886 24.3152 106.081
151 1 11.4922 31.0199 107.238
152 1 11.9301 30.2023 104.283
153 1 8.85279 29.2269 103.687
154 1 10.1541 28.484 106.299
155 1 11.669 27.4022 103.349
156 2 7.74796 30.01 106.407
157 2 9.61244 31.1433 105.339
158 3 9.23289 26.6316 104.697
159 1 12.2192 26.3277 106.129
160 1 9.85455 25.0814 107.049
161 1 15.9885 28.5823 107.063
162 4 14.2599 30.7344 105.748
163 2 15.9044 28.952 102.527
164 4 14.301 28.2091 104.465
165 3 14.8541 26.2639 106.173
166 3 13.0173 28.7211 106.77
167 1 13.7525 25.0276 103.966
168 1 16.9776 30.2767 104.728
169 1 16.8742 26.7134 104.453
170 3 16.4015 25.4375 107.763
171 4 14.7192 31.2993 103.207
172 3 22.8425 31.3165 104.592
173 2 21.0752 27.7838 107.026
174 4 20.7156 25.0835 107.272
175 1 18.7558 28.6964 102.743
176 4 21.0249 30.3305 106.325
177 1 20.1938 31.127 103.592
178 2 19.0941 28.8585 105.446
179 3 19.8388 26.4444 104.796
180 1 18.4645 26.8912 107.113
181 1 22.868 26.137 105.781
182 1 21.5483 28.4024 104.108
183 1 21.8391 25.7721 102.841
184 1 27.9932 25.8278 107.346
185 1 26.108 29.6402 104.556
186 2 25.6722 27.4466 106.528
187 3 24.5275 27.4313 104.116
188 1 23.6169 29.1879 106.009
189 1 24.841 24.9826 102.963
190 1 28.1741 28.5925 106.491
191 3 28.5279 28.919 103.762
192 1 27.2838 26.5567 104.426
193 1 23.7852 29.7642 102.597
194 2 25.7494 29.9069 107.581
195 1 32.6525 30.9225 105.252
196 1 29.7349 25.0543 104.77
197 2 30.3854 27.835 105.082
198 1 32.282 26.4159 103.739
199 2 29.9139 30.5396 105.051
200 1 29.5578 26.9528 102.306
201 5 30.7743 26.4126 107.257
202 1 31.2017 29.3495 102.948
203 1 30.8274 29.534 107.353
204 2 33.8558 28.8049 103.822
205 1 33.0716 27.8838 106.324
206 1 12.7582 24.055 110.746
207 2 11.4629 23.0795 108.501
208 1 14.3102 21.7306 109.747
209 3 15.6872 20.9504 112.022
210 2 14.9064 23.4023 112.316
211 2 16.8118 20.4484 109.822
212 2 16.9447 22.7607 110.791
213 1 16.5265 22.6837 108.081
214 4 15.5462 24.7266 110.1
215 1 20.8209 19.224 110.286
216 1 18.4942 20.3821 111.943
217 3 19.1851 23.1038 111.536
218 2 21.0832 23.4941 109.821
219 1 19.2475 21.6054 109.336
220 2 22.1617 21.3046 109.267
221 1 21.2312 21.6706 112.13
222 1 22.2165 24.4624 112.998
223 2 23.3153 18.9224 108.743
224 3 18.5671 19.0154 108.62
225 1 18.6278 24.6758 109.343
226 1 23.7081 20.0517 111.226
227 1 25.171 21.507 109.041
228 1 23.5466 23.1507 110.789
229 2 26.6828 23.5603 108.27
230 3 25.7386 21.8088 111.823
231 2 26.5901 19.5214 109.986
232 1 27.9332 22.1197 110.253
233 5 27.5766 23.5808 112.862
234 2 25.0587 24.2808 113.081
235 3 25.99 24.0489 110.727
236 2 30.1188 23.3748 111.344
237 1 29.9756 23.5832 108.133
238 3 11.9041 25.7131 108.685
239 1 9.03682 30.1662 108.947
240 5 9.49016 27.8425 111.16
241 5 9.96889 25.201 110.147
242 1 11.4136 28.3513 109.016
243 1 12.305 26.8262 111.351
244 3 12.1368 29.4711 111.566
245 2 11.5022 31.1658 109.89
246 1 9.69678 30.5923 111.92
247 2 8.89944 27.2611 108.474
248 1 16.9381 28.6533 112.618
249 5 14.9873 26.2372 112.29
250 3 14.5229 28.4979 111.049
251 5 16.4056 30.0959 110.065
252 1 14.2615 30.9464 112.243
253 1 13.8178 30.1156 108.96
254 1 14.189 27.0124 108.821
255 1 17.6342 25.2156 112.275
256 1 17.0652 27.2824 109.896
257 3 19.0974 27.36 111.841
258 3 20.3038 25.3173 111.399
259 2 19.8459 27.3311 109.493
260 1 19.254 29.8761 110.957
261 1 18.7049 29.6283 108.135
262 1 22.1757 25.9178 109.468
263 1 21.8601 27.6857 111.763
264 1 21.6146 29.4925 109.129
265 2 21.8577 30.4211 111.696
266 1 24.357 30.411 110.038
267 4 23.8644 27.8763 108.418
268 3 23.9939 25.6916 111.387
269 2 24.4771 27.9697 111.025
270 4 25.0965 25.5349 108.87
271 1 26.4804 26.4947 112.145
272 1 28.2777 25.1942 110.172
273 1 26.665 27.7669 109.284
274 1 26.7826 29.6431 111.682
275 1 28.3796 30.0714 109.097
276 1 24.0673 29.8128 112.978
277 1 29.5453 25.7193 112.898
278 2 32.9129 31.0676 110.955
279 1 32.5268 28.1837 109.455
280 2 29.2573 30.3499 112.303
281 1 33.4226 30.7269 108.267
282 2 28.7591 27.8487 111.292
283 2 29.6325 27.685 109.107
284 1 31.1776 25.7276 110.265
285 3 33.1035 25.7668 108.244
286 2 30.722 30.0655 110.28
287 1 31.2482 28.3246 112.215
288 1 17.2904 22.5253 113.562
289 1 15.5014 24.5306 114.748
290 1 18.5073 23.6812 116.096
291 3 19.6273 21.438 114.321
292 1 21.4334 23.0604 115.493
293 3 19.6429 23.892 113.688
294 1 24.3368 24.1452 115.628
295 1 23.7767 21.8949 113.71
296 1 11.0363 28.0156 113.754
297 1 11.6974 30.9533 114.038
298 2 12.6306 29.3034 116.092
299 2 12.8496 25.347 113.614
300 3 17.9225 25.8155 114.796
301 2 15.9766 27.1907 114.593
302 1 16.5518 26.168 117.074
303 5 15.3325 28.9679 116.59
304 1 13.657 26.619 115.921
305 5 17.7835 28.5343 118.345
306 1 17.3719 31.0956 116.905
307 1 13.8993 28.569 113.753
308 3 16.1775 30.3306 114.463
309 1 20.6083 29.2096 118.529
310 5 20.0848 29.2024 113.506
311 1 20.2824 26.3896 114.055
312 3 19.9022 30.466 116.282
313 1 19.6497 26.3541 117.111
314 2 18.5749 31.1213 114.305
315 1 18.1909 28.4811 115.473
316 1 21.7784 31.1649 114.497
317 3 22.2642 30.756 117.085
318 3 22.2043 27.0106 118.125
319 1 21.6703 28.366 115.822
320 2 22.1159 25.6452 115.935
321 3 26.0353 28.3072 114.141
322 1 23.759 29.2487 118.658
323 1 24.3238 29.6152 115.831
324 1 24.6539 26.8569 116.91
325 1 23.8181 26.8293 113.964
326 1 26.8918 30.8677 114.523
327 1 27.084 28.8268 116.718
328 1 26.8743 25.8348 114.987
329 1 29.647 30.5633 115.656
330 1 28.6962 28.2907 114.043
331 1 31.5802 31.1199 113.466
332 1 13.2029 33.3428 95.3213
333 2 16.6727 35.126 92.5604
334 1 16.1473 32.776 94.2877
335 1 15.1648 35.5819 94.9066
336 2 17.8545 35.3177 94.6143
337 2 17.605 37.1144 96.5429
338 2 18.1546 32.9478 92.4367
339 1 20.0117 35.2612 92.9393
340 1 19.5564 32.8663 94.8414
341 2 21.8059 34.6753 94.8639
342 5 20.8743 32.6054 92.1321
343 1 19.7887 35.4631 96.3252
344 1 19.7707 37.769 94.5097
345 3 22.8862 32.3504 93.7682
346 1 22.2282 32.0288 96.3345
347 1 23.1028 34.6324 92.4124
348 1 22.7862 37.1833 93.8971
349 2 21.9226 37.0624 96.4107
350 1 27.1825 37.6089 95.5739
351 4 24.0561 33.9231 95.2807
352 1 24.5567 36.4156 96.3084
353 2 26.4341 33.7816 95.4049
354 3 27.6418 34.0639 92.5287
355 1 28.2566 32.064 94.4346
356 1 28.6137 35.1082 94.7364
357 1 25.7082 35.7808 93.6039
358 1 25.5024 32.6401 92.9946
359 4 23.4626 32.0122 91.0429
360 2 30.4467 33.3791 96.0433
361 3 13.9327 37.9762 95.0631
362 1 16.7215 37.9646 94.249
363 1 15.5981 39.5625 96.607
364 4 20.264 42.1016 96.4268
365 1 21.8473 39.6846 95.6731
366 1 18.4945 39.8896 96.1942
367 2 24.5884 39.0252 95.5278
368 2 11.5266 37.7722 99.4822
369 1 9.99168 36.9213 101.786
370 5 11.9223 34.6331 101.614
371 2 10.6557 32.4708 100.129
372 1 8.82526 34.1949 101.29
373 1 10.7127 35.1251 99.0676
374 2 12.7229 31.913 101.527
375 1 12.9262 37.4828 101.803
376 4 11.0456 32.6656 97.2879
377 1 12.4372 35.9945 96.6464
378 4 15.801 36.6556 101.346
379 3 15.7638 33.4682 99.1554
380 1 13.6606 35.9417 99.3724
381 2 17.5262 31.7111 98.877
382 1 17.216 33.9247 96.8562
383 2 14.6172 34.5006 97.2909
384 5 13.0772 33.2014 99.1126
385 1 16.665 36.0093 98.7281
386 5 17.9802 33.952 100.37
387 1 14.8464 33.8696 101.57
388 3 14.949 37.065 97.1247
389 1 14.8823 31.7453 97.1878
390 1 17.358 31.8643 102.222
391 5 18.4643 37.0841 100.528
392 3 19.4689 35.4626 98.8549
393 1 20.8349 33.95 100.6
394 1 19.8076 32.8818 97.9861
395 4 21.7819 36.6262 99.8314
396 1 22.3593 34.7658 97.8079
397 3 22.3374 32.3356 99.0288
398 3 22.0917 31.5136 101.478
399 2 26.8796 35.4211 97.1808
400 1 24.992 36.2042 99.2639
401 1 25.0703 33.375 97.9719
402 1 23.7398 33.9315 100.679
403 1 25.8843 35.6965 102.029
404 2 26.9795 37.8356 100.779
405 1 27.8913 35.1099 99.6662
406 1 28.1363 32.9525 97.3426
407 2 26.2487 33.1074 100.524
408 2 26.8749 37.7814 98.2715
409 1 32.0067 31.8802 97.9326
410 1 29.0789 36.6286 102.043
411 2 32.2005 34.6217 97.5021
412 2 30.1438 34.3578 101.191
413 3 29.0969 37.5087 99.492
414 1 28.7214 32.2103 100.489
415 1 29.5586 35.954 97.3071
416 1 31.3914 36.1343 99.612
417 1 32.5349 33.3431 100.471
418 3 30.2359 33.6768 98.8143
419 5 12.8486 38.7872 97.4422
420 5 12.5817 40.1572 100.67
421 4 14.5525 43.1224 100.335
422 3 15.2193 40.8871 100.878
423 1 14.9436 38.6672 99.456
424 1 17.2244 42.7655 101.502
425 1 17.6404 39.9017 100.928
426 5 16.587 41.4559 98.6286
427 3 17.426 38.7076 98.5003
428 3 13.9833 41.0185 98.5333
429 1 19.9544 38.0165 97.9524
430 1 21.7061 43.0151 98.667
431 2 19.1103 40.6593 98.755
432 5 20.0407 41.9804 100.84
433 4 18.7079 43.3176 98.8474
434 1 20.5143 39.0748 100.788
435 2 22.3701 43.8231 101.215
436 1 22.7339 40.9446 100.376
437 2 21.3948 40.3114 98.1972
438 1 26.9644 41.7704 101.833
439 1 23.7103 38.2002 101.221
440 1 28.5165 40.0729 99.8439
441 3 26.7254 42.0489 98.8842
442 2 24.6917 42.7658 100.338
443 1 24.0204 41.439 97.5929
444 1 25.5775 39.9052 99.7923
445 1 23.4627 38.5615 98.1179
446 2 26.434 39.9633 97.1679
447 4 29.2136 38.9109 97.2672
448 1 31.0099 38.7047 101.104
449 1 10.7206 36.0416 107.093
450 3 8.49084 37.5701 106.859
451 2 9.42046 37.3594 104.525
452 3 8.54573 35.1473 105.824
453 2 10.0751 34.8587 103.651
454 1 10.7923 33.4854 105.777
455 2 7.7524 35.6877 103.387
456 1 11.9735 36.4867 104.422
457 1 8.53084 32.7052 107.426
458 1 7.93918 32.9921 104.315
459 1 10.3956 32.2728 102.889
460 4 14.7601 36.0205 103.749
461 5 14.3166 37.0972 106.17
462 2 13.1311 34.8533 106.422
463 1 16.3268 31.6345 107.549
464 1 15.6979 33.6465 105.337
465 2 13.7674 32.643 107.221
466 1 13.026 33.4111 104.024
467 1 17.102 36.4144 106.001
468 1 17.3596 34.9536 103.012
469 3 18.1193 32.9346 104.644
470 1 23.2193 31.6581 107.586
471 1 18.2022 33.9297 107.339
472 1 20.3124 36.3012 102.524
473 1 19.9714 36.3389 107.383
474 2 19.2498 35.3326 104.865
475 1 20.6651 33.2045 105.735
476 3 19.603 33.6076 102.862
477 1 21.8579 36.0195 105.057
478 2 22.9875 35.9193 102.333
479 2 23.332 33.5703 105.692
480 1 22.2412 33.5262 103.241
481 3 18.7398 31.4191 106.293
482 2 27.9398 34.0527 102.333
483 4 24.1142 36.3468 106.746
484 4 24.1316 37.4969 104.023
485 1 25.5219 33.8601 107.272
486 3 25.1579 31.7632 105.691
487 1 25.1307 32.5239 103.076
488 4 24.8891 35.0498 104.517
489 1 26.8585 36.6306 107.579
490 4 27.3874 36.9143 104.294
491 1 27.5085 34.0949 104.975
492 1 28.0205 31.5734 103.388
493 1 27.7959 31.5392 106.516
494 1 30.7791 32.3418 102.859
495 5 29.4632 36.1156 105.969
496 1 32.1682 35.7373 102.454
497 2 29.9846 34.7922 103.772
498 1 33.2418 33.4498 107.162
499 2 31.502 37.869 107.002
500 1 32.293 35.6567 105.495
501 2 33.018 33.4286 103.922
502 1 30.4756 33.1236 105.797
503 1 12.2269 41.4955 105.606
504 1 11.1114 39.4446 103.292
505 1 11.0642 38.8796 106.41
506 1 16.4472 43.4189 107.546
507 4 15.2204 38.9717 102.541
508 2 16.5039 40.9962 103.431
509 5 15.1029 41.8825 105.59
510 1 13.7764 41.6493 102.956
511 4 13.6326 39.1171 104.484
512 1 17.4952 43.3411 104.573
513 1 16.4763 39.2885 105.565
514 1 17.8155 37.9509 103.239
515 1 13.9323 39.6904 107.288
516 2 18.148 38.541 107.675
517 2 19.0513 44.174 107.566
518 4 20.5559 39.3365 107.528
519 1 20.4874 43.4645 105.357
520 1 18.568 41.2786 106.433
521 1 19.2251 40.8224 103.499
522 3 19.6062 43.5691 102.813
523 5 19.6356 38.3074 105.272
524 3 23.1735 43.0899 105.578
525 2 21.3693 40.9084 105.622
526 1 22.0185 42.0304 103.152
527 4 22.7676 38.6601 106.333
528 1 21.8022 38.9956 103.466
529 2 22.0385 44.3713 107.579
530 4 25.7607 38.4426 105.715
531 1 28.6295 39.4958 102.864
532 4 25.9677 38.8847 102.877
533 1 23.5701 41.3483 107.648
534 1 24.761 43.2141 103.237
535 1 24.1496 40.6582 104.838
536 1 28.5505 41.7719 107.282
537 3 26.2326 40.4964 106.95
538 2 26.7941 40.8246 104.496
539 1 25.9599 42.9309 105.991
540 1 28.623 39.0487 106.054
541 3 24.46 40.7612 102.246
542 3 29.0716 41.6228 104.568
543 3 31.0015 40.6055 103.133
544 1 30.9262 37.9967 104.169
545 5 31.1283 40.4784 105.83
546 1 11.9927 37.8571 111.34
547 2 10.6835 35.6652 110.089
548 1 11.8421 33.7164 108.702
549 1 12.9367 37.0948 108.693
550 1 12.0652 32.9228 111.725
551 1 9.36815 33.1662 110.375
552 3 11.2001 35.3489 112.487
553 1 8.3272 35.4319 108.626
554 3 9.88731 33.0973 113.215
555 1 15.2419 35.0284 108.185
556 1 14.7207 33.9599 112.851
557 1 15.1603 36.7913 110.953
558 1 14.6521 32.7814 109.94
559 2 13.1624 35.1332 110.686
560 5 17.6894 36.3624 109.119
561 5 16.9004 34.4575 110.895
562 1 17.0262 31.8847 112.327
563 2 15.7306 37.8656 108.313
564 2 18.3757 34.3067 113.089
565 3 20.3087 32.0832 108.187
566 3 19.8168 37.8919 109.645
567 1 18.9904 36.5899 111.839
568 1 20.0437 32.4381 112.263
569 1 19.9257 34.5313 110.007
570 5 18.2184 32.2572 109.702
571 4 22.3442 37.3068 108.647
572 1 22.1669 34.4107 108.05
573 1 23.0457 32.8457 112.486
574 1 21.8787 37.3522 111.411
575 3 22.4075 34.8767 110.831
576 2 21.7524 32.2911 110.069
577 1 21.2859 35.0612 113.338
578 2 26.3711 31.905 108.939
579 4 24.5415 36.0953 109.422
580 1 24.8715 35.4691 112.171
581 1 24.3128 33.3367 109.877
582 1 28.4244 34.0771 108.002
583 1 27.1262 37.1124 110.784
584 3 26.71 34.558 110.009
585 1 28.3333 32.4362 110.639
586 3 27.6934 34.713 112.324
587 1 25.9409 32.5338 112.221
588 1 29.6986 35.0191 110.592
589 1 29.4361 37.1922 108.606
590 2 30.9712 34.9762 107.984
591 1 31.3702 34.5171 113.047
592 1 31.7612 37.1469 110.344
593 1 32.6407 34.1244 110.126
594 3 33.1004 36.1342 108.176
595 2 30.8388 32.4739 111.342
596 1 30.7573 32.2345 108.647
597 1 29.5217 37.0402 112.815
598 1 9.85073 38.0901 109.176
599 1 11.9181 40.2541 109.264
600 1 16.5015 40.5907 108.416
601 1 15.406 41.6211 110.899
602 2 14.004 42.1583 108.415
603 2 14.3958 39.22 110.058
604 5 13.0 40.4655 112.024
605 1 17.8404 41.1103 112.584
606 1 18.1391 42.8248 109.932
607 1 17.2929 38.8403 110.694
608 1 15.4002 39.1421 113.104
609 1 20.7709 42.14 108.248
610 1 20.5752 41.9982 111.603
611 2 19.1205 40.3737 109.543
612 2 19.9931 39.3232 111.781
613 3 20.6421 44.1914 109.905
614 1 23.1543 42.8619 110.295
615 1 21.9185 39.8819 109.847
616 1 22.8151 40.1112 112.691
617 2 18.2861 38.5247 113.392
618 2 24.4776 43.9866 108.056
619 1 26.0912 41.9905 109.162
620 1 25.7718 41.7039 112.228
621 1 25.0349 38.8417 108.63
622 3 24.4152 38.0984 111.173
623 3 24.3139 40.4941 110.491
624 3 27.742 39.357 108.653
625 3 26.5683 39.6305 110.802
626 1 28.5984 41.3454 110.423
627 5 28.2184 39.8285 112.922
628 1 25.5295 38.8979 113.386
629 1 30.5483 39.9173 108.621
630 2 29.3472 38.7531 110.769
631 1 12.2401 33.9384 114.619
632 1 14.2531 31.7712 115.409
633 1 16.4762 36.3161 113.652
634 3 14.6411 34.9918 115.419
635 1 13.3917 36.628 113.56
636 3 14.9638 37.6158 115.526
637 2 15.3309 33.4265 117.364
638 1 16.7827 35.9875 116.819
639 2 17.9379 33.6265 117.604
640 1 16.8172 33.3742 115.021
641 2 20.8957 37.8563 113.889
642 1 19.8791 35.4497 117.799
643 1 19.0756 36.2178 115.012
644 1 20.3447 32.3008 118.262
645 1 19.8053 33.281 115.466
646 1 22.2039 36.2189 116.061
647 2 23.349 37.1372 113.603
648 2 22.4556 34.7855 118.588
649 5 23.2831 32.1626 119.035
650 1 22.6719 33.2551 116.37
651 1 25.1858 36.8247 115.62
652 3 23.7471 34.6794 114.432
653 2 24.8646 34.5905 117.22
654 2 24.45 32.1112 114.665
655 3 26.8793 36.5748 113.489
656 3 28.1397 32.7457 116.231
657 1 26.3037 34.1191 114.786
658 1 25.5936 31.8863 117.192
659 1 28.9845 35.2778 115.128
660 1 28.9622 32.7502 113.514
661 3 30.7842 33.0848 115.415
662 1 17.3668 38.8386 115.74
663 1 20.1723 40.3826 114.38
664 1 22.9596 39.0955 115.461
665 1 20.1868 38.4087 116.662
666 1 27.9054 38.1118 115.262
