# LAMMPS data file written by OVITO Pro 3.7.7
1499 atoms
5 atom types
0.0 250.0 xlo xhi
0.0 90.51 ylo yhi
0.0 181.02 zlo zhi

Atoms  # atomic

1 1 23.1952 20.6141 90.0041
2 4 21.1933 18.8251 91.4193
3 4 26.3782 21.0645 89.8435
4 4 29.2678 20.9731 91.1674
5 3 17.9973 26.597 89.5403
6 3 19.758 24.9841 90.1838
7 1 16.3398 25.5788 91.4548
8 1 21.5678 22.8544 90.9396
9 3 24.17 23.0683 89.7129
10 5 22.3488 25.1696 89.287
11 3 23.985 24.6381 91.5523
12 2 26.2521 23.1449 88.1081
13 1 28.7885 23.1803 89.1333
14 1 28.0059 25.8483 87.7196
15 1 25.2667 25.5218 88.8929
16 1 26.5985 23.8865 90.9559
17 3 28.0341 26.0405 90.3174
18 5 34.5546 22.1052 90.3895
19 5 30.6485 25.2407 89.4473
20 4 31.9373 26.5671 87.3885
21 1 31.7282 22.5667 90.8156
22 1 33.5333 24.7058 89.3619
23 3 35.036 26.6679 90.3006
24 4 36.6148 24.4533 89.6726
25 1 14.5725 28.0585 91.6446
26 1 17.338 28.9175 90.6909
27 1 19.5306 30.7458 89.6143
28 3 15.8134 31.2828 91.2119
29 1 20.5278 27.7292 89.8318
30 2 21.8862 29.6675 88.2426
31 1 22.541 30.4154 90.8239
32 1 23.5449 27.7931 89.7936
33 1 24.6731 30.1359 88.1187
34 1 25.669 26.8207 91.5838
35 1 29.6699 27.9716 89.0581
36 2 30.044 26.866 91.5406
37 2 25.3419 27.6441 87.1348
38 2 26.7068 27.9475 89.2338
39 1 27.8313 29.0593 87.0638
40 1 27.4074 31.0943 89.2635
41 3 26.577 31.4878 86.7031
42 2 25.4982 29.6087 90.6187
43 2 30.063 30.6585 89.2114
44 1 29.3453 31.6567 86.7935
45 1 28.0333 28.8746 91.4173
46 5 30.8549 29.572 91.3326
47 1 32.5237 27.5486 90.3321
48 1 31.6375 29.4858 87.4013
49 1 34.3197 28.4152 88.2389
50 3 32.7991 30.2252 89.7745
51 2 34.8263 31.2424 88.7196
52 1 35.5275 29.3352 90.7801
53 1 37.4337 26.904 91.3527
54 1 18.1383 36.1367 91.3213
55 1 20.0989 34.0136 89.581
56 1 17.8096 33.1846 91.281
57 4 24.8327 32.1094 90.2977
58 2 22.1937 32.3058 88.8454
59 1 22.7918 35.4885 88.689
60 1 22.613 33.8279 91.1877
61 4 21.0889 36.4089 90.9429
62 4 24.4657 33.1532 87.5979
63 2 24.9481 34.5337 89.8539
64 2 23.822 36.4902 91.1163
65 1 29.3028 31.9039 91.6188
66 1 27.327 33.9748 87.6153
67 1 25.8249 36.6218 88.5854
68 1 27.4138 33.9312 90.5116
69 4 26.469 36.5332 91.3445
70 2 29.5848 33.0784 89.104
71 1 28.9788 36.1539 89.1713
72 3 30.0486 34.4926 91.0034
73 5 30.2429 34.4976 87.0302
74 1 32.1114 32.3133 88.0212
75 3 31.6432 32.3695 90.5928
76 3 31.6659 34.7187 89.2611
77 3 34.1322 36.4325 90.4197
78 1 34.105 31.9198 91.483
79 1 34.2251 33.9344 89.3851
80 1 36.841 32.468 90.6651
81 4 36.6473 35.4369 89.6169
82 1 19.5966 38.8136 91.1327
83 2 22.3313 40.9197 91.2576
84 1 24.9296 38.903 90.5543
85 4 22.2797 38.4081 89.5901
86 2 27.6577 38.4746 90.0232
87 5 27.2995 41.1344 91.1279
88 1 29.9609 39.4317 91.1254
89 1 31.5677 37.001 90.7218
90 1 33.5047 39.2534 91.4002
91 1 36.1487 37.6862 91.5841
92 4 24.9061 15.6539 96.1636
93 4 27.8008 15.9862 96.4039
94 4 30.6879 15.617 96.5325
95 3 19.72 21.0297 91.7677
96 3 17.4646 19.9766 95.3904
97 2 17.6309 21.4546 93.3978
98 1 19.688 19.1612 93.9654
99 2 22.2527 20.7854 92.5705
100 1 21.0329 17.6887 96.3318
101 1 22.3741 20.1914 95.0961
102 4 22.4398 17.5752 93.7747
103 4 24.0666 18.2887 96.4887
104 4 24.1587 18.8477 92.0488
105 4 25.1499 20.1761 94.5031
106 4 25.5021 17.4795 94.163
107 4 26.9136 19.6345 92.3731
108 4 27.2738 18.7918 95.8156
109 4 30.1722 17.5967 94.4604
110 4 29.1126 20.0719 94.1471
111 1 30.0783 21.4322 96.528
112 1 31.7953 20.0653 92.8071
113 2 31.7105 19.4644 95.5243
114 1 33.1472 17.2686 95.0529
115 5 34.4023 19.7746 93.7975
116 3 35.924 17.886 94.9517
117 1 36.7958 20.4496 95.3633
118 2 39.3045 20.2521 96.4746
119 4 13.599 23.8675 95.4909
120 3 14.2598 25.7649 93.2971
121 3 15.6545 21.6612 95.5446
122 1 16.0415 23.8691 93.9445
123 1 18.2451 22.9429 95.728
124 1 18.8337 23.7942 92.4455
125 1 18.0928 25.8083 94.9217
126 1 15.2714 26.3397 95.9251
127 1 24.7831 21.8204 92.155
128 3 20.4573 24.5656 94.5962
129 5 20.2968 21.9215 94.1166
130 1 22.7575 23.2831 93.7294
131 1 21.3492 22.8223 96.7935
132 1 21.5347 25.5784 92.1382
133 1 22.8504 25.5126 95.6642
134 2 23.7403 26.4999 93.4046
135 1 24.2235 22.3515 96.272
136 4 27.7774 22.3094 93.1381
137 5 27.02 21.7825 95.7862
138 2 25.3798 24.7904 96.4683
139 1 25.6267 24.2559 93.8671
140 5 29.4708 24.1406 91.7852
141 1 28.4864 24.1846 95.5224
142 1 27.996 26.1492 93.1073
143 1 35.1368 24.4702 92.0746
144 3 33.5884 22.2808 92.9324
145 1 33.1451 21.7526 95.65
146 1 30.8308 22.6211 93.8252
147 5 32.2231 25.1897 91.9563
148 2 30.5425 25.3234 94.0723
149 3 31.2906 23.8945 96.2613
150 1 33.2521 24.5036 94.4839
151 1 32.0432 26.5639 96.1248
152 3 34.7201 26.3324 95.5953
153 2 38.7558 22.2009 94.4412
154 1 36.3881 21.627 92.5561
155 1 35.9582 23.3639 94.8818
156 1 38.1758 24.12 92.4188
157 1 39.6722 24.7365 95.0411
158 5 36.9131 25.9163 94.2191
159 1 13.162 27.9248 94.3417
160 4 12.0978 30.3701 95.753
161 1 13.7905 30.6516 93.0922
162 1 18.8473 26.8531 92.1978
163 1 15.425 29.4713 95.3945
164 2 16.2872 27.2857 93.5902
165 1 18.343 28.978 94.238
166 3 16.185 29.6315 92.9426
167 2 18.2083 30.8619 92.3594
168 3 18.8647 27.6884 96.5826
169 2 17.6249 30.8294 95.9635
170 2 20.0135 29.2929 91.957
171 1 20.8442 27.3647 94.4934
172 3 22.1979 28.1067 92.1782
173 5 21.597 30.2862 93.6994
174 1 22.6406 31.7798 96.0686
175 1 20.3161 29.8351 96.2908
176 1 23.3046 28.8126 95.5681
177 1 24.5484 29.1621 92.9914
178 2 27.1961 29.1141 93.9712
179 1 25.8744 27.1068 95.0647
180 1 26.6225 31.5086 92.5795
181 1 25.7374 30.8154 95.5273
182 3 29.5113 29.656 93.5591
183 1 28.5098 29.9468 96.3834
184 1 29.1763 27.3761 95.4018
185 1 31.5697 27.7905 93.464
186 2 31.0436 29.6264 95.4456
187 1 31.7554 31.455 93.3806
188 3 33.2641 29.4814 92.2777
189 2 33.5141 28.6209 95.148
190 1 34.5707 27.2545 92.9881
191 1 33.2837 31.125 95.8532
192 1 38.2452 30.0183 91.7715
193 3 39.3374 26.7972 93.2595
194 1 36.0388 28.6084 96.0563
195 1 35.3428 30.4019 93.7281
196 1 36.2968 31.6047 96.5759
197 1 38.7099 27.5114 95.838
198 2 37.1265 28.3792 93.5588
199 1 38.3363 30.5423 94.6813
200 2 40.3233 29.11 93.5678
201 1 41.5622 27.3623 95.3292
202 1 40.7706 29.9944 96.5388
203 4 43.3194 31.2624 96.2179
204 4 41.1842 31.7699 94.3023
205 4 14.0329 32.2435 95.755
206 1 15.1681 34.9601 95.2589
207 2 15.6609 34.5289 92.4576
208 1 16.2988 32.2018 93.8901
209 2 17.8968 34.5074 93.8165
210 1 17.4267 33.4723 96.5086
211 2 18.0099 36.0814 95.733
212 1 19.3727 32.1602 94.4282
213 2 20.0856 34.6227 92.6009
214 5 20.4875 32.1131 91.8262
215 4 23.857 31.9047 93.2505
216 3 21.8122 33.2325 93.8559
217 1 20.3312 34.8048 95.4425
218 1 22.5613 35.8813 93.4722
219 4 23.9783 34.1303 95.2396
220 1 25.1656 34.3767 92.6284
221 1 24.2906 36.8329 95.9171
222 1 28.9351 32.1031 94.604
223 2 26.4858 33.2933 94.8564
224 1 26.6419 36.3519 94.2597
225 2 26.58 34.9598 96.6159
226 3 27.9255 34.1541 93.0173
227 1 29.0569 35.0898 95.2994
228 1 29.1676 36.5626 92.3529
229 1 31.766 33.8199 95.5416
230 2 30.3781 33.8892 93.2475
231 2 31.4212 36.1088 93.9512
232 5 34.2831 33.2705 94.1148
233 1 32.6013 34.4887 91.9733
234 3 34.3418 33.3628 96.757
235 1 33.9854 35.8862 95.6488
236 2 30.6415 31.7951 96.8
237 2 36.8542 32.6362 93.4644
238 4 39.0492 35.0819 94.4728
239 5 35.5424 34.7291 92.1162
240 4 36.6105 34.2317 95.5555
241 1 39.2486 32.8222 96.3368
242 4 38.1604 35.4361 91.9574
243 4 39.2552 32.7404 92.568
244 5 36.4916 36.5863 94.1883
245 4 41.4676 34.6266 96.1867
246 3 15.1781 37.6543 96.0484
247 1 16.5064 37.0304 93.6432
248 2 17.8938 39.3682 93.2507
249 1 17.6153 38.7321 95.9813
250 1 19.5925 37.2183 93.741
251 3 20.0484 40.6947 92.9097
252 4 18.0173 41.4704 95.0849
253 3 15.7074 40.3233 96.773
254 1 20.4376 39.6865 95.3734
255 1 22.1238 38.7295 92.7414
256 2 21.6308 37.2444 95.5878
257 3 24.6307 37.8466 93.2461
258 1 24.682 40.6306 92.8738
259 2 23.2472 39.3502 95.094
260 1 22.1198 41.8566 94.0693
261 2 22.5258 41.0799 96.7975
262 1 24.75 41.9461 95.546
263 1 25.9003 39.2758 95.5713
264 1 27.2158 38.9621 92.8353
265 4 29.1904 38.0494 94.7829
266 3 29.3752 40.4709 93.4419
267 4 28.4128 40.3108 95.8574
268 3 31.6089 41.2499 92.5269
269 1 31.2367 37.049 96.5932
270 1 31.6783 38.8003 93.5951
271 2 30.9571 39.7584 95.975
272 2 35.1739 39.1758 93.7279
273 4 33.8011 36.8942 93.0761
274 1 33.6314 38.9158 95.945
275 5 33.4231 41.363 94.5101
276 1 36.407 40.2859 96.0805
277 2 36.0443 37.6239 96.5847
278 4 38.258 38.61 94.7097
279 2 39.1141 41.1611 96.5751
280 4 40.5137 37.258 95.6869
281 2 24.3956 43.3865 93.2088
282 1 22.7909 44.2489 95.8852
283 1 20.3083 42.5812 96.5349
284 2 25.8614 44.483 95.0836
285 1 27.2963 42.1773 93.9394
286 4 28.7162 44.7011 95.4099
287 1 30.5252 42.285 95.0342
288 4 31.0743 46.1535 96.1713
289 1 32.8146 43.9422 96.0561
290 4 36.9957 43.1231 96.489
291 4 17.4738 14.7079 101.33
292 1 19.6732 15.9972 98.7439
293 5 20.2147 13.9509 100.824
294 1 23.1624 13.8423 100.149
295 2 24.4763 16.2072 100.194
296 1 22.7865 16.0336 98.0776
297 1 21.8136 16.4032 100.97
298 4 27.7734 12.9139 100.23
299 2 25.4483 13.3144 101.457
300 3 26.8711 15.3461 101.007
301 1 25.8627 14.5643 98.6777
302 1 28.7935 15.8486 99.1883
303 1 30.0283 13.8141 101.78
304 5 33.0849 14.4394 97.6055
305 4 30.4872 13.5839 98.7403
306 1 34.984 15.0243 99.7873
307 1 32.0985 15.4644 100.344
308 1 35.3311 16.2196 96.965
309 3 37.3574 16.2268 98.9247
310 2 36.761 16.2805 101.495
311 4 13.6879 20.1377 100.455
312 2 14.2203 21.4621 97.76
313 1 19.7081 20.3901 96.8434
314 3 15.9646 19.1502 100.998
315 1 18.053 17.9276 97.0353
316 1 16.7798 16.9396 99.6571
317 1 15.5511 19.1899 98.2313
318 2 17.122 21.1544 97.556
319 1 18.3641 19.6564 99.5798
320 5 19.0435 17.2758 101.338
321 2 22.4073 20.2651 97.7271
322 2 20.8337 18.464 98.9448
323 1 21.0127 19.3054 101.58
324 4 20.8028 21.29 99.5156
325 1 23.5792 18.6586 99.5201
326 2 23.5185 20.2754 101.613
327 2 25.1416 20.3208 97.8366
328 1 26.1493 17.7984 101.413
329 1 26.289 17.6223 98.3938
330 1 26.044 20.6504 100.586
331 2 28.3737 18.5338 100.024
332 1 29.7924 18.34 97.4258
333 1 27.8197 20.5133 98.2391
334 1 34.4894 19.321 96.8469
335 1 32.6077 17.2852 98.0132
336 2 30.6978 17.6942 99.9939
337 1 30.3091 20.5466 99.8476
338 2 32.9124 18.9185 100.2
339 2 32.0778 19.9589 97.951
340 2 34.2042 20.9695 99.0198
341 5 32.698 21.3506 101.179
342 1 35.3625 17.9855 99.4008
343 2 35.2918 20.1249 101.008
344 1 38.2854 18.3934 100.413
345 2 37.4909 18.1169 97.1281
346 1 36.9419 20.3501 98.5075
347 1 39.9285 20.6851 99.1163
348 1 37.7241 21.2424 101.353
349 4 41.1702 19.1488 101.534
350 4 13.4564 23.5491 99.2316
351 4 13.7808 22.5677 101.831
352 4 12.5327 26.0549 96.9759
353 1 14.7246 26.157 99.0639
354 4 12.5014 25.0908 101.578
355 1 20.1464 25.4332 97.3079
356 1 16.1122 21.781 100.074
357 1 15.777 23.6639 97.4109
358 3 16.7087 24.4517 99.9053
359 2 17.4172 25.7421 97.6483
360 1 18.598 23.0845 98.6389
361 3 18.7787 22.1387 101.132
362 3 18.8294 25.7217 99.5954
363 1 23.6062 21.9533 99.5801
364 1 20.8238 24.1364 100.235
365 1 23.3366 24.5124 98.4094
366 2 23.4153 24.3321 101.193
367 1 26.4121 23.2321 98.411
368 3 25.6879 23.3212 101.001
369 1 25.5274 25.8681 100.172
370 1 27.353 26.0768 97.6754
371 1 28.308 22.7105 100.727
372 2 29.3588 23.351 98.2781
373 1 29.1565 25.5411 100.017
374 3 29.8903 25.5666 97.3156
375 2 30.9206 23.4201 100.757
376 1 31.9479 25.5757 98.8814
377 1 32.218 22.643 98.4363
378 2 34.0747 24.4478 97.3801
379 1 33.7239 24.0426 100.775
380 2 35.2838 22.1899 97.1403
381 1 36.1401 23.0458 99.4897
382 3 35.5318 25.5669 99.6828
383 1 38.0781 22.7339 97.0752
384 3 38.8121 23.0753 99.6833
385 2 39.3934 25.0068 97.6608
386 1 38.1894 25.7496 99.852
387 1 36.7058 25.3957 97.1645
388 3 39.3685 24.3748 101.806
389 2 41.7682 25.4176 97.1039
390 1 42.7131 21.7231 99.6786
391 1 41.148 24.2562 99.6471
392 1 41.0344 22.6856 97.0568
393 2 43.5079 23.8975 98.1214
394 2 43.7768 24.2212 100.707
395 1 43.0619 26.624 99.2868
396 1 40.6525 22.0129 101.819
397 4 13.614 28.5911 97.3933
398 1 11.2531 30.1129 100.787
399 4 11.0226 29.0045 98.0048
400 4 12.1087 27.2805 99.8218
401 4 10.1909 31.5442 98.0029
402 1 12.9165 31.4412 98.661
403 1 14.4409 29.2301 100.069
404 1 16.9371 27.2421 100.708
405 1 16.684 28.3484 97.8831
406 3 17.1944 29.9751 100.15
407 1 15.8298 31.2266 97.9943
408 2 18.4739 30.5543 98.154
409 1 19.4896 28.2271 99.1612
410 3 20.1295 26.7717 101.432
411 1 19.8425 31.0707 100.351
412 1 22.1762 26.8213 99.8716
413 1 24.3399 27.2023 97.7398
414 2 21.6078 27.595 97.3002
415 2 21.6184 29.1281 101.229
416 1 22.023 29.9317 98.7023
417 3 22.2751 31.6436 101.05
418 1 24.4802 28.8701 100.121
419 3 24.3564 30.1713 97.6901
420 2 24.45 31.6473 100.033
421 1 27.5812 28.1683 99.9576
422 2 26.4744 28.6042 97.2941
423 1 26.6758 30.8264 98.7329
424 2 26.345 30.4408 101.312
425 2 28.8937 29.818 101.661
426 1 29.6479 30.4702 98.9875
427 3 29.4811 27.8561 98.055
428 1 34.4197 27.296 98.1414
429 1 30.8437 28.1283 100.429
430 1 31.9649 28.923 97.8183
431 2 31.2248 30.8643 101.074
432 2 33.4522 26.9024 100.666
433 1 33.6726 29.5742 100.517
434 2 34.5532 29.9802 97.9124
435 1 32.5768 31.693 98.6865
436 3 34.9727 31.6512 101.472
437 1 36.0314 27.7892 100.996
438 5 36.5426 30.3751 99.4231
439 2 38.2147 29.7587 97.3809
440 3 37.1862 27.8187 98.4678
441 1 38.8213 28.8865 100.61
442 1 40.2738 27.5075 98.3062
443 1 39.362 31.3725 99.102
444 2 43.1801 28.7069 97.4003
445 1 40.7529 26.7126 101.269
446 1 44.6423 28.9535 100.2
447 1 41.8103 29.8086 99.5003
448 1 44.0032 31.7473 98.9556
449 1 43.6021 31.1806 101.864
450 2 42.3708 28.7254 101.869
451 2 10.6724 32.8876 100.111
452 4 11.9298 33.6876 97.0919
453 5 13.1898 34.1005 99.7082
454 2 10.998 35.3733 99.1405
455 2 12.6779 32.3918 101.554
456 2 14.9668 33.7384 97.7976
457 1 13.5108 36.1017 97.638
458 1 15.2272 32.0972 100.84
459 5 17.7622 33.08 99.4628
460 3 15.7261 34.6002 99.9837
461 1 16.5441 36.1019 97.9173
462 1 20.1184 32.5585 97.5086
463 3 19.1693 34.9791 97.9974
464 5 18.4606 36.3399 100.123
465 1 20.5294 33.9385 100.229
466 3 22.4645 32.5382 98.706
467 1 22.2727 35.1425 97.648
468 4 21.2447 36.8279 99.8666
469 1 23.521 34.3156 100.347
470 1 24.9224 32.9959 97.624
471 1 25.2443 35.9488 98.6213
472 2 26.1788 33.6703 99.8695
473 1 28.1981 32.9984 97.4849
474 1 28.3046 32.4242 100.722
475 1 28.2521 35.3985 99.4782
476 2 30.1105 34.9376 97.7046
477 1 25.9838 36.0756 101.567
478 2 30.2617 34.6686 101.173
479 3 30.4413 33.1165 99.284
480 1 31.3474 36.6351 99.7773
481 1 32.6707 33.3429 101.155
482 1 32.6827 34.6278 98.2562
483 1 35.1995 32.9816 99.2848
484 1 34.478 35.8027 100.291
485 2 37.0748 35.0555 99.8768
486 2 35.585 35.3408 97.8116
487 3 37.5453 33.2387 98.2939
488 1 39.8416 34.2343 99.2708
489 1 37.7197 32.5179 101.278
490 1 38.2361 35.8461 97.3086
491 1 39.062 36.8713 100.483
492 2 40.855 36.6009 98.2942
493 2 41.5741 35.6319 100.783
494 3 41.5281 32.3288 97.8401
495 3 41.7525 32.5813 100.323
496 1 42.8851 34.5532 98.6468
497 1 43.7567 34.1182 101.493
498 1 12.9102 36.8872 100.521
499 1 14.795 38.6297 98.6205
500 4 13.6529 39.5808 101.34
501 4 15.7687 36.92 100.794
502 3 17.4795 38.4955 98.7561
503 5 18.0523 40.9388 98.0264
504 1 16.5041 39.5969 101.074
505 1 19.479 39.3598 100.418
506 1 19.7338 37.4997 97.5357
507 4 15.4993 41.5396 99.1851
508 1 22.6577 38.5623 97.7444
509 2 20.5255 40.1422 98.0531
510 1 22.5272 40.5924 100.138
511 1 23.7515 37.8088 100.448
512 1 24.8562 41.1625 98.3572
513 1 27.7384 37.3245 97.1314
514 2 27.0782 37.8586 99.8537
515 2 25.2864 38.5306 98.1463
516 1 25.6719 39.8662 100.986
517 2 27.3051 39.8933 98.2433
518 3 29.4547 38.1719 98.8687
519 1 28.7019 40.0029 100.671
520 4 29.6101 40.9023 98.0099
521 3 27.0088 41.9421 99.7333
522 1 29.0536 37.1608 101.869
523 3 32.326 41.499 97.1105
524 1 31.9025 39.2688 98.5067
525 1 31.3965 39.2512 101.438
526 3 31.4008 41.5969 99.6062
527 3 33.7687 37.2379 98.0753
528 2 33.8301 38.3725 100.346
529 1 34.6655 40.1561 98.483
530 1 33.555 41.4089 101.018
531 1 36.4617 37.851 99.1972
532 1 36.1988 40.0568 101.43
533 1 38.8951 38.6946 97.7055
534 3 38.5922 39.4905 100.494
535 2 37.4259 40.7191 98.6644
536 1 41.8373 39.1834 97.504
537 3 40.7355 38.7025 99.7568
538 1 40.315 41.2099 99.0566
539 1 43.1747 37.4322 99.601
540 3 42.6777 39.9448 100.517
541 4 18.1832 43.7859 98.3423
542 1 17.9267 42.1602 100.837
543 3 19.9352 44.1667 101.702
544 5 20.372 42.3434 99.4702
545 2 22.8241 42.9407 98.3391
546 3 24.9531 43.7874 97.3389
547 1 23.7427 45.9465 98.3145
548 3 24.0136 46.2467 100.976
549 1 20.9586 44.9481 98.3761
550 2 24.4438 42.1372 101.381
551 1 22.4746 43.9518 100.778
552 3 29.2845 46.1993 98.0572
553 1 25.423 44.0068 99.8273
554 1 27.4008 42.7429 97.1364
555 3 27.4667 44.5082 101.625
556 3 27.9234 44.488 99.1122
557 1 26.6329 46.6752 100.344
558 1 26.6181 45.8842 97.3803
559 1 29.3207 42.8954 100.486
560 1 29.6263 45.9897 100.727
561 3 34.6454 42.2315 96.8332
562 2 33.1323 43.1459 98.8157
563 1 30.4045 43.6425 97.8463
564 3 31.72 43.9535 100.805
565 1 34.8876 45.0598 97.8279
566 1 34.2786 44.8396 100.851
567 1 32.1079 45.8237 98.9081
568 4 38.6159 43.7265 98.5998
569 1 35.8388 42.752 99.2794
570 1 37.2015 44.9467 101.097
571 1 38.2178 42.1859 100.994
572 1 19.3353 15.2755 103.463
573 1 17.636 16.1261 105.709
574 4 23.363 11.6841 102.009
575 3 20.3984 14.2152 105.774
576 1 22.0145 14.0342 103.204
577 3 22.3719 12.6456 105.61
578 1 24.6667 12.839 104.27
579 1 22.9693 15.3526 105.813
580 1 24.5585 15.5026 102.78
581 4 26.7723 11.438 102.812
582 1 27.125 12.6355 105.981
583 3 25.6709 15.0671 105.275
584 5 29.3142 11.9151 103.91
585 1 27.3767 14.2615 103.369
586 1 28.2504 15.3288 106.426
587 1 30.1243 12.6792 106.593
588 3 29.7708 14.5004 104.438
589 1 34.2874 14.3669 102.744
590 1 31.6565 15.3211 106.268
591 1 32.1419 13.1329 104.348
592 3 33.7874 16.425 104.736
593 3 34.2604 14.5011 106.103
594 1 31.6722 15.9932 103.264
595 1 36.3119 16.0064 104.184
596 2 36.3168 16.2109 106.913
597 1 14.2364 19.2567 106.852
598 1 14.9002 20.1436 103.491
599 4 12.2581 21.3765 103.739
600 1 17.915 19.9924 102.544
601 1 16.5359 17.2188 102.881
602 1 16.9246 18.9481 105.391
603 2 19.0769 17.9933 103.941
604 3 20.1562 20.594 103.673
605 5 15.5573 21.6092 106.15
606 1 20.2198 19.3256 105.949
607 3 23.6116 17.9797 102.227
608 3 20.2836 16.5845 105.931
609 2 24.3111 17.4273 104.62
610 1 21.6611 17.2177 103.833
611 3 22.5652 18.0016 106.463
612 1 22.6796 19.9919 104.312
613 1 24.9753 19.2378 106.421
614 1 29.0039 16.6762 102.137
615 3 29.7118 16.9854 104.901
616 1 25.3856 19.7797 103.424
617 1 27.0033 17.2795 104.286
618 3 27.3304 20.283 104.925
619 3 29.6259 19.4041 104.615
620 4 28.2278 19.6903 102.399
621 1 28.108 18.5321 106.709
622 5 30.1557 21.5727 102.717
623 1 34.1399 17.2129 102.005
624 1 31.1278 18.8329 102.397
625 2 31.7222 20.8727 104.735
626 1 32.0436 18.3184 105.431
627 1 33.766 19.7725 103.277
628 5 35.1424 18.5295 105.446
629 4 34.2514 21.4841 105.425
630 2 38.9745 17.3163 103.027
631 4 36.7338 20.8877 104.624
632 4 36.6135 18.713 102.861
633 1 38.0459 18.0073 105.614
634 1 39.3262 20.0304 103.663
635 1 38.9158 20.8843 106.678
636 1 40.8871 18.7059 105.913
637 2 42.0077 20.5442 104.146
638 3 41.6701 21.1967 106.905
639 2 11.7874 24.1729 104.189
640 1 12.6718 21.967 106.449
641 2 10.6381 24.1086 106.499
642 1 13.2646 24.9783 106.823
643 1 13.8307 25.9977 104.147
644 2 14.1655 23.1683 104.43
645 1 18.2859 21.6961 105.277
646 1 16.588 22.6261 102.977
647 1 16.3107 24.385 105.512
648 1 18.3488 24.8991 102.088
649 4 15.2758 24.9412 101.931
650 3 19.5431 22.9407 103.253
651 4 19.1444 24.6043 105.113
652 3 15.3272 26.7002 106.234
653 3 24.408 22.2558 102.778
654 1 21.2339 22.4835 105.379
655 1 21.8338 22.229 102.265
656 3 23.1519 23.7176 104.319
657 1 21.5461 25.2114 102.986
658 1 21.8511 25.9535 105.905
659 1 24.7342 22.0466 105.589
660 1 25.1298 24.9456 103.201
661 1 24.6576 25.0004 106.115
662 1 29.2647 22.0072 105.516
663 1 26.9883 22.4774 103.367
664 2 27.0779 23.6643 105.806
665 1 27.2454 26.3596 104.949
666 1 29.4395 24.3075 103.481
667 2 27.4229 25.3314 102.008
668 5 29.5953 25.0304 106.293
669 4 35.1962 22.2237 102.687
670 4 31.5511 25.6849 101.932
671 1 31.8762 23.0364 106.351
672 1 31.915 26.0 104.793
673 1 32.4456 23.2599 103.414
674 1 34.8531 24.133 105.116
675 1 34.4468 26.3688 103.138
676 1 36.6687 24.5231 102.154
677 2 38.399 22.7678 103.41
678 1 37.6829 23.6034 105.779
679 3 36.8381 25.8732 104.461
680 1 39.5234 25.54 104.224
681 1 44.1207 26.5979 102.182
682 1 40.6322 22.7837 104.96
683 1 43.648 22.1151 102.572
684 1 41.9904 24.4754 102.767
685 3 42.2168 25.0281 105.327
686 3 44.3798 24.6098 104.116
687 1 43.5751 22.455 105.558
688 1 11.8618 27.7582 102.741
689 1 11.0373 26.7243 105.463
690 3 13.1772 28.0133 106.111
691 5 13.4509 30.1885 102.656
692 1 11.2365 29.9226 104.687
693 4 13.7075 30.6325 105.91
694 3 14.4792 27.4431 101.978
695 4 14.8757 28.7964 104.442
696 1 18.1396 26.7643 106.874
697 1 16.8767 26.956 103.868
698 2 16.1435 29.4198 102.335
699 1 17.8534 29.8637 104.899
700 1 17.791 31.6499 102.26
701 1 18.913 28.8336 102.288
702 3 19.5239 26.777 103.947
703 2 20.032 28.4519 105.625
704 4 15.5362 31.6713 103.886
705 3 18.8961 31.7846 106.65
706 3 23.7004 26.9571 102.042
707 1 21.8668 28.1273 103.629
708 4 21.0416 30.7477 106.273
709 1 20.6642 30.9415 103.473
710 1 22.9597 28.7992 106.339
711 3 24.2996 27.2222 104.512
712 1 23.907 30.2031 102.67
713 3 23.0661 31.3448 104.793
714 1 26.1933 28.0161 102.648
715 2 25.3823 27.4507 106.856
716 1 25.5071 29.719 105.218
717 1 27.4778 31.2744 103.471
718 1 29.2655 27.2803 102.828
719 3 27.9639 28.9331 104.55
720 2 28.7735 31.2952 105.74
721 2 29.8468 27.6053 105.666
722 1 30.3713 29.8339 103.96
723 2 32.2727 28.2149 102.681
724 1 32.9455 28.8434 105.202
725 2 34.7159 29.0861 103.109
726 1 35.0239 27.113 106.185
727 1 32.9132 31.0793 103.161
728 1 33.4929 31.562 106.204
729 3 36.868 30.0934 102.011
730 3 38.1077 26.7931 102.358
731 3 35.5825 29.8059 105.958
732 1 35.7469 31.5567 103.985
733 1 37.958 27.023 106.675
734 1 37.0886 28.546 104.197
735 5 39.8112 28.505 103.404
736 1 39.5068 29.8752 105.991
737 3 38.3917 30.9545 103.724
738 1 40.5251 30.9496 102.129
739 4 40.8233 27.3936 105.874
740 3 41.9536 27.0161 103.672
741 1 42.3079 29.7999 104.385
742 2 44.7624 29.093 103.288
743 1 44.0352 27.1544 105.287
744 1 45.0242 29.8739 106.088
745 3 44.6736 31.7797 104.231
746 5 11.3025 34.7912 101.927
747 1 10.3536 32.148 102.914
748 1 12.9568 32.7707 104.232
749 1 10.8144 34.6312 104.821
750 2 13.5165 35.2831 105.156
751 1 14.2457 34.7694 102.393
752 2 13.9768 33.3235 106.827
753 1 11.4115 32.354 106.916
754 1 15.9705 34.3907 104.941
755 3 18.1191 32.7948 104.63
756 1 17.3701 34.5865 102.209
757 2 18.7917 35.3102 104.562
758 3 19.7441 33.3659 102.801
759 1 16.2963 31.8495 106.706
760 1 20.0602 36.4865 106.889
761 1 20.6574 33.5221 105.457
762 1 22.4171 33.4085 102.967
763 1 20.3664 35.9088 102.452
764 2 23.176 36.0044 102.373
765 1 22.0546 36.1519 104.8
766 2 23.4392 33.7423 105.363
767 4 25.1118 35.2109 104.163
768 4 24.4098 36.8444 106.184
769 1 25.3446 32.9751 102.387
770 3 25.4531 32.3483 105.036
771 1 27.83 33.8343 104.898
772 2 27.9641 34.4991 102.339
773 5 29.4563 36.1093 105.992
774 1 30.2115 32.6316 102.933
775 2 30.1406 35.2214 103.676
776 4 27.3509 36.704 104.285
777 1 30.9072 32.9804 105.737
778 1 32.302 35.5301 105.551
779 1 32.4685 36.0373 102.469
780 2 33.1592 33.6008 103.955
781 5 34.661 36.4193 104.356
782 1 37.4211 31.9568 106.378
783 2 40.2722 32.278 104.805
784 5 35.4428 34.0587 105.559
785 1 35.4748 34.1921 102.539
786 5 38.0324 33.5692 104.125
787 1 38.6352 34.9889 106.571
788 2 38.0448 35.1237 102.127
789 3 37.1609 36.1146 104.534
790 1 39.7043 36.342 103.954
791 1 42.8572 31.9971 106.257
792 1 40.3578 33.8291 102.332
793 1 41.5997 34.5878 105.723
794 3 42.4081 32.7612 103.639
795 1 44.3751 34.4797 104.472
796 2 42.1913 35.5045 103.263
797 2 45.3036 32.9193 106.722
798 3 40.5421 36.8705 106.565
799 1 12.3223 37.0524 103.533
800 5 14.1581 37.7381 105.895
801 4 13.8575 39.9833 104.068
802 4 15.1875 37.5187 103.343
803 3 16.028 41.4222 102.959
804 1 17.9692 37.6147 102.804
805 1 17.0979 36.997 105.825
806 1 16.6779 39.7588 105.034
807 2 18.5037 40.3051 103.017
808 5 19.7665 38.4594 104.807
809 1 19.2346 41.2678 105.577
810 1 21.5231 38.679 102.545
811 4 22.8624 38.9275 105.165
812 1 20.7337 41.6478 102.402
813 2 21.9208 41.2703 104.854
814 4 24.5952 38.0638 103.293
815 3 23.4612 40.4614 102.843
816 1 25.1083 41.881 104.45
817 4 25.6747 39.0979 105.62
818 4 27.161 39.165 103.294
819 3 26.7448 41.1309 106.573
820 1 28.6622 39.0031 105.982
821 1 29.6071 40.5795 103.656
822 1 31.0125 37.9819 104.172
823 3 31.1455 40.0315 105.932
824 3 32.3791 40.7133 103.932
825 1 33.8933 38.7818 102.933
826 1 33.6355 38.6627 105.894
827 1 35.0297 41.2739 104.223
828 2 31.1249 41.92 102.122
829 2 31.3335 37.6452 106.864
830 1 33.3649 41.4757 106.687
831 1 36.43 37.2057 102.162
832 3 36.202 38.7949 104.436
833 1 37.9911 41.0636 103.868
834 3 38.5921 38.6245 102.837
835 1 38.3858 38.3806 105.832
836 3 38.7629 41.097 106.332
837 1 40.5185 40.7253 102.073
838 1 42.7469 37.4702 105.156
839 2 40.5498 39.1054 104.389
840 1 41.3654 37.8901 102.125
841 1 41.0517 41.7184 104.963
842 1 44.2082 37.0561 102.428
843 1 43.1478 39.8908 103.314
844 2 43.3527 40.2138 106.044
845 5 15.9489 42.5861 105.48
846 1 18.0348 43.1761 103.557
847 1 18.3806 43.91 106.653
848 1 20.6719 43.8585 104.647
849 3 22.8676 42.9421 103.233
850 1 22.4269 45.7365 103.198
851 2 21.8334 46.0013 105.889
852 1 24.9864 44.421 102.729
853 1 24.5931 45.8357 105.499
854 2 23.1458 43.537 105.599
855 2 25.2334 43.4322 106.833
856 3 27.9286 46.4874 102.91
857 1 27.2204 42.0876 102.498
858 2 28.3347 42.2827 105.187
859 1 27.1174 44.5146 104.583
860 2 25.4902 47.0591 103.116
861 1 27.6685 46.7987 106.354
862 3 29.5108 44.823 105.812
863 1 29.8235 44.1521 103.168
864 1 30.0246 47.0153 104.408
865 1 32.1154 46.2064 102.425
866 1 31.0667 42.6977 105.478
867 2 31.9667 45.1515 104.995
868 1 33.0469 43.3749 103.217
869 2 34.3945 43.7372 105.462
870 3 34.5716 45.5925 103.589
871 5 33.8432 46.5714 106.02
872 5 39.5889 43.6203 103.091
873 2 35.6786 42.7354 102.041
874 3 36.6109 42.4489 106.041
875 1 36.7727 44.1212 103.979
876 1 36.2433 45.1302 106.829
877 1 38.982 43.7805 106.027
878 1 18.8989 14.8898 108.063
879 1 21.7981 13.5588 108.095
880 1 20.732 14.6515 110.73
881 1 21.2806 16.4861 108.364
882 2 24.6231 13.4713 107.1
883 1 24.0278 13.5921 110.186
884 3 22.926 16.0068 110.61
885 2 23.7252 15.4976 108.393
886 1 28.5794 12.915 111.164
887 4 26.6007 14.1856 108.857
888 3 28.2434 12.1968 108.505
889 1 29.6514 14.573 108.88
890 3 28.0752 15.4318 110.875
891 1 25.6432 16.5026 110.45
892 2 30.7126 12.1064 109.475
893 3 32.0337 15.6291 109.003
894 3 32.3475 13.3981 107.987
895 1 31.385 14.2079 111.315
896 3 34.3447 14.653 108.747
897 1 33.5666 16.3247 110.955
898 1 36.2608 16.4153 109.637
899 2 14.1511 18.3755 109.611
900 1 14.3416 20.4289 111.551
901 2 13.1134 20.8065 109.051
902 2 18.9988 17.787 107.658
903 1 16.4925 17.5487 108.245
904 3 17.9565 20.1286 107.438
905 1 16.4822 17.8952 111.278
906 2 18.8681 16.8211 110.011
907 1 16.0204 20.4521 109.12
908 2 17.2219 20.5254 111.676
909 1 18.8963 19.4992 109.843
910 1 20.1203 21.6045 107.984
911 3 22.575 20.6175 106.968
912 2 21.1947 19.1119 108.421
913 1 21.1959 18.0607 111.032
914 2 21.9238 20.9283 109.801
915 1 23.6504 18.2192 109.118
916 1 23.4847 20.0612 111.728
917 1 24.4506 20.9611 108.841
918 1 25.7255 16.638 107.325
919 2 28.003 16.8828 108.877
920 1 27.08 21.143 107.403
921 3 25.9277 19.2061 111.643
922 2 26.4612 18.9629 109.128
923 1 29.2098 19.9568 109.459
924 1 28.2099 18.0031 111.338
925 2 30.3864 16.6545 110.647
926 1 30.4346 17.4152 107.847
927 2 30.5511 20.1238 107.027
928 1 32.0483 18.7389 109.781
929 3 31.4262 20.9575 111.384
930 1 33.8336 17.0631 107.672
931 2 34.7892 18.7246 110.084
932 1 33.4904 20.0887 107.628
933 3 33.6088 21.0433 110.349
934 3 38.394 16.5451 111.235
935 1 36.4457 19.0563 107.952
936 1 36.2099 21.1327 110.092
937 2 37.2931 18.7252 110.744
938 1 38.9379 17.4908 108.527
939 3 38.6904 20.0934 109.165
940 2 40.026 18.5253 110.949
941 1 38.8723 20.8996 111.673
942 1 41.3474 19.3946 108.761
943 1 41.8295 20.8253 111.324
944 1 11.4935 23.1476 108.921
945 3 12.9597 25.1402 109.64
946 1 13.1592 23.1384 111.477
947 5 10.989 26.2887 108.42
948 1 14.5484 23.0954 108.65
949 1 16.2633 22.9269 111.144
950 4 15.2548 25.4697 110.524
951 1 18.3672 25.0425 109.989
952 2 18.6532 22.1245 110.282
953 1 17.4577 22.9832 107.992
954 3 16.0583 25.3882 108.118
955 4 19.9669 24.535 107.62
956 3 20.0177 26.1872 111.849
957 1 22.7617 23.3114 107.868
958 2 20.9605 23.1595 110.123
959 1 21.5847 25.6678 109.657
960 1 23.8181 23.0298 110.817
961 3 23.8056 25.7922 111.28
962 4 24.4171 25.5694 108.858
963 2 25.6755 23.3189 108.202
964 1 26.8463 21.7529 110.463
965 3 26.1018 24.466 110.497
966 1 27.1924 25.5675 107.826
967 2 29.7 22.9136 111.061
968 1 28.7752 23.1134 108.486
969 1 28.57 25.4971 110.498
970 3 33.31 25.1826 106.983
971 4 31.3763 21.7636 108.938
972 1 31.1314 24.7947 108.733
973 1 32.3919 23.6527 111.072
974 1 34.0639 22.9798 108.464
975 1 33.888 25.989 109.451
976 2 36.1513 21.7154 107.227
977 1 35.8143 23.9674 110.75
978 5 36.0832 24.9542 107.787
979 5 35.9805 26.6531 111.548
980 4 37.8536 23.0506 108.763
981 1 39.1512 23.9059 111.617
982 4 39.7097 24.822 107.356
983 5 38.116 25.7653 109.705
984 1 40.4066 22.2286 109.186
985 1 41.363 24.9886 109.84
986 1 44.4536 24.7282 107.16
987 3 41.8743 23.6487 107.308
988 1 43.3463 22.474 109.069
989 2 44.026 25.517 109.905
990 4 42.2583 26.3072 107.586
991 2 42.3935 23.4991 111.756
992 1 13.8526 27.374 108.613
993 1 11.2434 29.1772 107.632
994 1 11.8979 28.5965 110.586
995 1 13.7076 30.6078 108.702
996 1 11.1609 31.4964 109.899
997 1 14.1755 31.4419 111.589
998 3 14.5819 28.7999 110.772
999 1 15.8951 28.9871 107.19
1000 1 16.7905 27.6003 109.745
1001 5 16.4469 30.4026 109.802
1002 2 19.4286 27.5546 109.769
1003 1 18.7132 29.5337 107.99
1004 1 19.0358 29.9587 111.162
1005 2 20.8978 27.6753 107.853
1006 1 21.6346 28.2516 111.14
1007 1 21.3487 30.3 109.048
1008 4 23.4257 27.9052 108.968
1009 2 24.4374 28.118 111.487