# LAMMPS data file written by OVITO Pro 3.7.7
1985 atoms
5 atom types
0.0 250.0 xlo xhi
0.0 90.51 ylo yhi
0.0 181.02 zlo zhi

Atoms  # atomic

1 1 59.3476 13.6114 72.7294
2 4 60.9992 11.4192 72.1517
3 2 65.2494 13.602 72.0478
4 4 63.672 11.689 72.4201
5 1 67.9674 13.6069 71.7875
6 2 70.7464 13.4506 71.6407
7 2 58.4417 16.1853 72.4874
8 1 60.3508 18.0615 71.6342
9 1 62.125 14.4607 71.364
10 3 64.4435 15.6515 70.5084
11 4 62.4842 17.2571 69.4572
12 1 66.3987 16.1877 72.1689
13 2 65.082 18.188 70.4017
14 3 62.8959 17.1118 71.9446
15 1 67.2779 16.8659 69.4689
16 1 69.5903 16.0619 71.1902
17 2 70.3485 18.1052 72.6908
18 4 72.3113 15.0937 70.3016
19 4 74.6138 14.3952 72.1709
20 4 72.3263 17.8433 70.6631
21 2 74.6296 17.1898 72.1231
22 3 78.0341 17.929 72.8252
23 1 55.4094 20.3318 72.2261
24 1 56.6926 22.8277 71.2085
25 1 58.7651 20.6635 70.931
26 3 60.9594 22.0941 71.4355
27 2 60.7335 19.4952 69.2108
28 1 61.7032 22.0523 68.9635
29 3 59.0979 23.2315 72.3846
30 3 59.1628 23.1313 69.8452
31 1 63.8624 19.7674 68.6193
32 1 62.6098 19.9792 71.2163
33 5 63.3758 22.9403 71.2304
34 2 64.5911 22.2939 68.7386
35 1 65.7005 21.1504 71.0774
36 1 67.6767 18.8814 71.9016
37 1 66.9855 19.7812 68.8223
38 1 69.7953 18.8677 69.8341
39 1 70.9065 20.6263 72.5107
40 1 68.2035 21.6345 72.8848
41 2 69.0023 21.4098 70.4225
42 1 67.4359 22.7217 68.6319
43 1 71.7971 21.3373 69.6975
44 2 70.1957 23.3795 71.9255
45 2 69.5759 21.0354 67.9662
46 1 76.8089 20.0637 71.36
47 1 73.8075 20.042 71.6599
48 3 75.0551 22.098 70.5043
49 1 72.8224 23.0585 71.9517
50 2 77.805 22.818 72.0459
51 1 54.9563 25.0377 72.2491
52 1 57.9185 25.5875 71.1438
53 1 60.8442 24.9312 70.8785
54 1 60.0099 27.8683 71.8188
55 1 62.9981 24.7585 68.8228
56 1 65.5903 24.4312 70.07
57 1 63.5635 25.7596 72.0716
58 1 62.2968 27.4968 69.804
59 2 62.7529 28.4856 72.371
60 3 64.9537 27.0226 70.1495
61 1 66.5682 26.0852 72.2707
62 3 67.8406 23.6495 71.1723
63 1 70.1536 23.8381 69.307
64 1 69.4065 26.0306 71.6632
65 3 67.8976 28.2882 71.7054
66 3 67.9712 25.4908 69.4451
67 4 70.4163 27.1341 69.1982
68 3 71.8123 25.3596 70.7641
69 1 67.2601 28.0679 69.2981
70 1 73.3928 23.9647 69.2633
71 1 75.502 24.5093 71.6153
72 3 73.9899 26.4428 70.6798
73 1 72.026 28.038 71.7473
74 2 76.8277 26.9629 71.9362
75 1 56.7807 31.8202 72.7583
76 2 57.3899 28.9553 71.5908
77 1 59.5097 30.8712 72.351
78 1 61.8848 30.3491 70.6503
79 4 61.5102 33.1093 71.8215
80 1 64.5301 29.5546 69.3358
81 1 65.3378 28.9769 72.1172
82 1 64.2625 32.2251 70.7279
83 3 65.7404 31.8468 72.887
84 1 67.0601 31.0167 70.4779
85 1 69.8043 29.7765 70.7071
86 3 69.4029 32.3181 71.891
87 1 74.7987 29.0479 71.0527
88 1 72.5495 31.0333 71.2385
89 1 75.2351 31.9859 72.3923
90 1 66.788 33.9183 71.6455
91 1 69.5073 35.0124 72.4175
92 5 72.0575 33.7188 72.0647
93 4 60.4495 9.0165 76.4958
94 3 65.0006 7.46236 77.5214
95 1 67.3325 8.76928 77.3688
96 1 72.6435 7.78498 77.2578
97 1 55.1369 11.7991 77.5929
98 2 57.4356 12.4109 75.27
99 1 57.9072 10.3705 77.0652
100 1 60.0074 11.6681 74.9319
101 1 59.7888 12.6682 77.748
102 1 65.0423 9.74305 75.7881
103 4 62.3278 11.3817 76.6193
104 2 61.9879 13.2902 73.8757
105 1 66.5307 11.3254 73.4126
106 4 62.5064 10.0348 74.3045
107 1 64.452 12.6803 75.1788
108 2 65.2357 11.7039 77.6942
109 2 68.8975 9.53137 75.1175
110 1 70.1521 9.24759 77.6582
111 1 71.8453 9.89509 75.0289
112 1 69.5407 11.9145 73.8783
113 1 67.5411 11.6727 76.1765
114 1 70.8038 11.9654 76.7859
115 1 74.7042 9.37161 75.6591
116 1 72.4289 12.7421 73.6855
117 1 74.0479 12.1522 76.2053
118 3 76.6248 13.5118 75.5213
119 1 77.0642 10.9544 76.7623
120 1 79.2964 13.291 76.1617
121 2 52.022 16.5778 76.4196
122 1 55.2416 17.2837 73.0371
123 1 53.6926 15.1225 74.4796
124 1 53.4183 14.3615 77.5511
125 1 56.4786 14.3932 73.282
126 1 56.1145 14.5187 76.1814
127 1 54.7462 17.1397 76.3007
128 5 52.8282 18.2975 74.4169
129 3 57.1976 16.5884 74.6533
130 1 57.8603 18.7672 73.1704
131 1 59.0359 14.776 75.5069
132 1 57.5604 17.4994 77.0044
133 1 60.4768 17.0345 77.484
134 2 59.714 17.853 74.9674
135 1 61.0145 15.9651 73.6515
136 1 64.6983 18.722 72.9461
137 1 61.9679 14.3048 76.3467
138 1 63.9646 15.3209 73.6127
139 2 64.852 15.1606 76.2318
140 1 62.888 17.0509 75.7608
141 3 65.9457 16.6792 77.8194
142 1 65.9869 17.3596 75.082
143 2 62.0764 18.6959 73.8334
144 1 66.9548 14.312 74.5732
145 2 69.1519 13.9311 76.2305
146 5 69.8788 14.7704 73.8926
147 2 68.4191 16.869 73.7469
148 1 68.3039 16.4313 76.4964
149 3 69.6146 18.6062 77.5007
150 1 70.8386 17.357 75.2417
151 1 71.986 14.5946 76.0513
152 1 72.2871 15.9184 72.9643
153 2 74.3845 14.3848 74.7306
154 1 76.4757 15.9789 74.1123
155 3 72.648 18.7466 73.6719
156 1 73.8153 16.9292 75.3073
157 4 75.7334 17.8997 76.9183
158 4 72.4279 18.5876 77.5156
159 1 75.1058 14.7593 77.4978
160 1 79.4264 15.99 74.4922
161 5 77.9962 18.3918 75.4458
162 1 77.7915 15.8401 76.9382
163 2 80.6331 18.4549 74.8533
164 2 79.7233 17.9713 77.2893
165 1 81.0766 15.6928 76.9552
166 1 82.3301 18.5265 77.1331
167 1 51.3832 21.9426 76.3263
168 1 53.3005 19.6538 77.1216
169 1 55.6233 19.7329 75.1164
170 2 55.1896 22.7077 73.7364
171 5 53.1676 21.131 74.1811
172 1 54.2369 22.7258 76.6819
173 2 56.7216 22.2256 75.5879
174 2 57.6421 21.4744 73.4495
175 5 58.4045 20.0372 75.7633
176 1 59.358 22.9864 75.2717
177 2 58.9379 21.7616 77.5547
178 1 61.2575 19.8212 76.4666
179 1 60.3221 20.6953 73.5917
180 2 61.9594 22.3543 76.0572
181 1 65.7225 23.3199 73.1829
182 5 64.1522 19.4638 75.9298
183 1 66.7761 19.3061 77.3709
184 2 66.1262 20.5336 74.3186
185 1 63.355 21.3572 73.8136
186 1 64.9754 22.1269 76.3143
187 1 68.5584 19.3646 74.9151
188 3 69.2355 21.0307 77.4218
189 1 71.2292 20.3424 75.7361
190 1 67.8197 22.4274 75.6434
191 1 70.6703 23.024 74.564
192 1 71.1104 22.9965 77.7833
193 1 75.6261 21.981 73.3844
194 1 75.6467 18.9531 73.8285
195 3 73.9399 19.6428 75.6421
196 3 73.0867 21.3418 74.0197
197 1 73.6048 22.0426 76.596
198 1 76.5123 20.9041 75.9912
199 2 75.8416 23.6076 76.2369
200 3 77.8552 22.9598 74.7509
201 1 78.6775 20.5651 73.6644
202 1 79.8255 20.6564 76.5195
203 1 78.5089 23.0915 77.3667
204 2 80.2512 22.7578 74.3703
205 2 81.2203 23.2793 76.5497
206 5 82.1039 20.7913 74.9366
207 1 82.8502 21.3593 77.7006
208 3 53.9303 26.9408 73.8442
209 1 52.8638 24.1972 74.2927
210 2 52.2172 24.5878 76.8763
211 1 55.2852 25.3389 75.557
212 1 52.9455 27.1829 76.3233
213 1 56.7828 27.0576 73.512
214 4 56.893 26.7786 77.637
215 2 55.5733 28.243 75.7191
216 1 61.5386 23.7278 73.5025
217 1 56.9792 23.8444 77.6499
218 4 57.2809 24.2137 73.8416
219 4 59.2023 27.8858 74.5521
220 4 58.5193 25.7168 75.8588
221 2 61.342 25.0089 76.1113
222 1 60.5858 27.6499 76.9456
223 3 59.5607 25.553 73.3431
224 1 61.8667 26.8158 74.2434
225 1 63.8456 24.5997 75.0578
226 2 65.7316 24.3073 77.6574
227 1 63.9675 26.6934 77.1563
228 3 64.7709 27.1693 74.1747
229 1 66.2631 28.3777 76.3555
230 1 66.6332 25.5298 75.3791
231 5 71.8201 25.5688 73.2882
232 3 69.8276 28.2657 73.1517
233 3 68.3175 24.2569 73.5536
234 1 68.7191 24.63 77.2881
235 3 67.3729 27.8394 74.0471
236 3 68.6785 27.2712 77.0434
237 1 69.5404 26.1848 74.8206
238 2 71.8649 24.9281 75.9554
239 1 71.9257 28.0557 75.1302
240 1 73.9122 24.1029 74.4702
241 1 74.4003 27.0484 73.4105
242 1 74.22 26.431 76.3935
243 1 76.7115 25.2679 74.2524
244 1 76.7221 25.5991 77.7471
245 2 76.8103 27.4958 75.6672
246 5 79.2439 24.8634 73.0013
247 1 79.2338 25.5111 75.9588
248 4 81.7145 25.3644 74.6437
249 1 78.8768 27.6521 73.8153
250 1 80.8106 28.1405 76.0606
251 1 82.0707 25.6606 77.5678
252 4 83.3989 28.4039 77.4989
253 1 54.9599 29.3735 73.281
254 2 53.6088 29.9367 76.403
255 2 54.5324 33.1064 76.8963
256 1 55.8069 31.1524 75.4241
257 2 57.632 29.6611 74.0777
258 1 57.8775 29.328 76.8435
259 1 58.947 31.7881 75.3072
260 2 57.2774 32.6843 77.2408
261 4 60.9968 29.7621 74.4664
262 2 60.495 30.3362 77.3142
263 4 61.4317 33.3762 74.6078
264 1 60.5938 33.0735 77.7125
265 4 63.2157 31.0573 73.2773
266 4 63.4022 28.9924 75.4247
267 4 62.5254 31.4456 75.9982
268 3 65.1313 30.5675 77.4205
269 1 65.1437 32.5344 75.4346
270 3 65.5332 30.0261 74.518
271 1 67.9068 30.3858 73.2671
272 1 70.8444 30.7178 73.6553
273 1 68.0368 33.1582 74.2349
274 5 69.1413 29.1513 75.4934
275 5 70.5707 29.1483 77.8277
276 4 67.3963 31.2254 76.1743
277 2 69.8899 31.4244 76.5325
278 3 71.5036 32.9636 77.4032
279 3 73.5757 29.7302 73.4897
280 3 73.1113 32.0954 73.9193
281 2 73.2268 28.7532 77.7426
282 2 74.6914 28.9988 75.6029
283 1 72.5619 30.8432 76.166
284 3 73.8177 33.3205 76.4654
285 1 75.4193 31.5198 75.3092
286 1 76.4336 29.3399 73.4569
287 2 77.2149 32.267 77.2754
288 3 77.7245 31.7798 73.8887
289 1 78.0913 29.8767 75.9409
290 1 79.4619 32.4709 75.9526
291 3 80.4067 30.3285 77.6652
292 3 56.7046 33.6262 74.906
293 1 56.2182 35.2696 77.1346
294 5 58.8357 34.7627 76.0534
295 4 58.9274 33.8292 73.2151
296 4 61.2742 36.0055 75.2775
297 1 64.0469 34.1187 73.1402
298 3 66.0569 34.4732 77.0532
299 2 63.7006 36.7404 74.4091
300 2 63.6615 34.6257 75.8831
301 1 66.2829 35.56 74.5946
302 1 64.772 37.0041 76.9232
303 1 62.1132 38.1903 77.0581
304 1 71.0112 33.5438 74.8219
305 1 68.7582 33.9127 77.0191
306 1 69.2117 36.2626 75.0668
307 3 67.4252 36.5423 77.0846
308 2 69.8252 36.3173 77.6704
309 2 71.8072 36.1996 73.9773
310 1 74.0853 34.5055 74.1078
311 1 76.8583 34.0737 75.2146
312 1 72.2929 35.5357 76.6511
313 3 75.0078 35.8686 76.2595
314 5 73.8272 38.0411 76.9759
315 3 78.3825 34.696 77.4332
316 4 66.628 39.1887 76.8639
317 1 70.9846 38.382 76.3083
318 1 58.3141 8.27482 79.6104
319 2 58.7934 7.06058 82.215
320 5 61.5416 6.09448 81.8025
321 2 61.2011 7.45618 79.4394
322 4 60.6714 8.78275 81.8648
323 5 62.952 8.9604 77.8686
324 1 63.9804 6.89425 80.0037
325 1 63.6397 7.94038 82.6784
326 2 66.2684 8.21606 81.6652
327 4 66.8992 6.70839 79.3932
328 4 70.2666 6.55674 78.9822
329 4 67.9408 5.97735 81.8278
330 5 68.7338 8.71434 80.3358
331 1 70.7268 6.88238 81.9267
332 2 71.4742 8.73613 79.9995
333 1 73.4073 6.96697 80.0829
334 1 75.992 8.08307 81.4187
335 1 75.1868 8.84091 78.5093
336 4 73.5109 5.23074 82.353
337 1 56.8904 9.16406 82.1043
338 1 54.6801 10.6162 80.3975
339 1 52.4402 12.634 79.8368
340 2 53.9619 12.8964 82.0256
341 1 56.4919 12.2895 82.3036
342 2 55.318 13.2659 79.9057
343 1 57.6507 11.2258 79.8166
344 3 57.2539 13.2072 78.1014
345 1 59.2363 11.3021 82.485
346 1 60.4789 10.1304 79.2693
347 2 60.3387 12.5849 80.4413
348 3 61.9102 11.1914 81.7722
349 1 62.961 11.6636 79.3062
350 3 62.8564 9.27171 80.5066
351 1 65.409 9.58936 79.4819
352 1 64.5733 10.7273 82.1755
353 2 65.5064 12.4179 80.1718
354 1 63.2099 13.5971 81.502
355 1 65.8999 13.4779 82.8136
356 1 67.9466 11.3185 79.0615
357 1 70.7425 10.0092 82.433
358 1 67.6435 10.903 82.0231
359 2 69.7824 12.9601 81.6461
360 1 70.8421 11.3382 79.8221
361 5 69.6268 13.8301 78.8425
362 2 67.619 13.6059 80.5397
363 1 73.5832 10.2064 80.8027
364 2 72.8576 10.4249 78.0527
365 1 75.1764 11.9366 78.9417
366 1 76.1659 11.0168 81.9582
367 1 72.6491 13.5846 78.973
368 1 72.6599 12.9161 81.9657
369 3 77.1817 10.2388 79.4431
370 1 79.4916 11.7125 78.824
371 1 78.9677 9.59209 81.1884
372 2 77.5168 12.5807 80.2744
373 1 81.11 11.8869 81.501
374 3 77.297 13.248 77.9106
375 1 81.7599 13.8321 79.3635
376 3 78.6034 11.8823 82.3578
377 1 50.8058 18.4076 78.1563
378 1 50.6577 14.4699 81.7874
379 5 50.9692 15.379 78.8306
380 1 50.9111 17.427 80.9682
381 2 53.2902 17.1097 78.6347
382 2 55.704 14.8556 82.1116
383 1 53.3602 15.3515 80.6373
384 4 53.1951 17.7095 82.696
385 1 55.5115 17.4576 81.186
386 1 55.8464 15.6323 78.8728
387 2 55.5463 18.4452 78.688
388 2 58.6949 15.2181 78.1833
389 1 58.0154 14.1977 80.5431
390 3 57.8839 17.0051 79.7637
391 1 57.9907 16.4299 82.5519
392 1 60.3289 17.1678 80.7272
393 2 60.257 14.656 81.8586
394 1 61.3503 14.7758 79.3312
395 5 64.0365 14.1281 78.443
396 1 66.8373 14.0737 77.8859
397 1 63.4064 17.0785 78.7034
398 1 63.067 16.5533 81.8676
399 1 65.5726 15.5193 80.4568
400 3 65.6107 18.2343 79.6235
401 4 70.7523 16.2081 77.9994
402 1 70.9448 15.4291 80.9408
403 1 68.3441 15.3134 82.4087
404 1 68.294 16.5458 79.4827
405 4 67.0005 17.7995 81.7066
406 2 69.5821 17.8287 81.9953
407 3 70.8517 17.9932 79.8631
408 4 73.2386 16.4595 78.6026
409 1 75.3427 13.9334 81.1322
410 2 73.6704 15.9612 81.0572
411 1 75.2569 18.0126 82.499
412 1 75.8564 17.2772 79.6739
413 3 79.342 14.4468 78.6175
414 1 79.2329 14.2874 81.2592
415 3 77.0847 14.956 79.5186
416 2 77.0942 16.0737 81.8922
417 1 78.8439 16.9502 79.5417
418 1 81.7808 16.7991 79.7575
419 5 79.8175 16.9374 82.1191
420 1 83.6944 17.2629 82.0751
421 1 81.9769 14.7366 82.4866
422 1 48.7614 19.4955 80.3178
423 1 48.3147 22.478 80.3366
424 3 50.6174 22.8877 81.4572
425 1 50.9635 21.2034 79.1945
426 2 51.061 20.2147 81.6851
427 1 56.2649 20.8508 77.9078
428 3 53.6592 21.4931 78.9884
429 5 53.1217 19.215 80.1877
430 1 53.1641 22.0217 81.6201
431 1 55.7096 20.471 80.7964
432 3 55.2835 23.0912 79.6582
433 1 55.9418 23.0676 82.4122
434 3 60.2176 22.5189 81.7099
435 1 58.8227 19.3983 78.8026
436 3 57.8762 18.9406 81.2686
437 1 58.1216 22.2734 80.1081
438 1 60.3444 19.9771 81.2904
439 1 61.1942 21.6926 79.055
440 3 61.5735 18.9883 79.0632
441 1 63.8976 20.4512 78.6169
442 3 63.3437 18.9644 80.82
443 1 62.8545 21.3716 81.8998
444 5 64.7586 22.9614 80.1963
445 1 65.8505 20.4646 80.9168
446 1 67.111 22.0403 78.6369
447 1 68.6256 19.5569 79.809
448 4 68.1772 20.1152 82.6808
449 1 71.1693 20.0806 81.7798
450 2 67.4558 22.5295 81.8138
451 1 69.737 22.2951 80.3596
452 3 71.1872 20.3809 78.8801
453 2 74.6708 19.949 78.1112
454 1 75.9611 22.319 78.6146
455 1 73.3551 18.8895 80.2807
456 2 75.852 20.1413 80.4068
457 2 71.9659 22.6653 81.9712
458 1 73.2635 21.9473 79.7422
459 1 74.3087 21.0113 82.4371
460 3 76.16 22.5175 81.3185
461 1 77.6307 19.5266 78.3822
462 1 80.8938 22.9482 79.2315
463 1 80.5896 19.7819 79.3488
464 1 78.1012 19.1962 81.5067
465 2 81.3922 18.827 81.7355
466 5 78.3947 21.7715 80.0567
467 2 77.998 21.7088 82.6313
468 1 80.5605 21.3941 82.0129
469 2 83.281 19.1806 79.9476
470 1 83.3147 21.7899 80.6936
471 1 49.6492 23.7225 77.9796
472 1 50.9218 26.3833 78.5509
473 2 49.3731 25.0743 80.4582
474 1 51.4081 25.5252 82.1854
475 4 50.5942 28.1328 81.1792
476 1 54.4099 25.5453 78.4934
477 2 54.7868 28.2261 78.1229
478 1 52.2243 23.865 79.4937
479 2 52.8877 27.0146 80.2777
480 3 53.7589 27.2139 82.7138
481 5 54.1174 24.891 81.3893
482 2 55.3827 27.118 80.8295
483 1 59.8731 24.2082 78.1206
484 3 58.9955 26.628 79.1034
485 1 57.0185 25.15 80.3452
486 2 59.6332 24.7052 80.69
487 1 58.5443 27.2309 82.0037
488 1 61.4264 26.1805 81.9981
489 1 61.761 26.2411 79.1353
490 1 63.0844 23.8047 78.0055
491 2 61.9861 23.8245 80.5071
492 1 63.6063 24.1809 82.5501
493 3 66.1804 24.654 82.4671
494 1 64.5082 25.8637 80.1952
495 2 63.069 28.1882 80.6998
496 5 65.448 28.459 79.3872
497 3 66.6272 26.4981 78.1782
498 1 66.9057 27.2932 81.7032
499 1 71.4159 26.4513 77.9668
500 1 67.1869 24.6341 79.9807
501 1 69.0341 24.8181 82.2156
502 3 69.8246 24.7722 79.5999
503 1 68.8913 27.1943 79.5969
504 4 70.7485 27.063 81.6995
505 3 73.6358 24.3519 77.9408
506 3 74.058 26.8217 79.0823
507 2 74.1492 23.8262 82.4759
508 1 72.2296 24.8026 80.3242
509 1 75.1175 24.6255 80.1405
510 3 72.1118 28.2307 79.9464
511 1 73.7924 26.8529 81.8427
512 4 76.5709 27.6713 82.775
513 2 76.4793 26.8871 80.1685
514 1 78.7477 27.8236 78.1904
515 3 79.6917 25.3206 78.7022
516 3 77.79 24.3051 79.8173
517 1 77.1414 24.8701 82.3588
518 2 79.6271 23.9386 81.4576
519 1 79.1462 26.6772 81.0161
520 1 81.9024 25.2761 80.7675
521 4 81.3219 27.8537 79.2078
522 1 81.961 28.3326 82.0126
523 2 83.6618 23.9698 78.9799
524 2 84.5806 24.3229 81.524
525 1 84.1065 27.0152 80.0745
526 3 51.5896 30.6726 80.9271
527 1 55.5823 30.8545 78.3232
528 1 52.0252 29.1003 78.5321
529 1 54.1824 29.4084 80.4569
530 3 53.8492 31.871 81.3261
531 1 56.4746 31.4492 81.278
532 1 52.8396 31.9156 78.8388
533 1 57.2025 28.7023 79.8211
534 1 58.6619 31.2244 79.069
535 2 58.9057 30.2018 81.7406
536 2 59.2198 32.8011 81.061
537 1 60.3352 28.7672 79.9263
538 1 61.5578 29.083 82.7977
539 1 61.8726 31.2875 80.4545
540 1 62.8829 29.3894 78.2658
541 1 63.5684 32.7366 78.2732
542 1 66.4676 32.5453 78.8899
543 2 64.4759 29.698 82.0867
544 1 64.5205 32.9788 81.3983
545 3 64.6002 30.8013 79.9035
546 1 67.0205 30.3062 81.3411
547 1 67.8259 29.7573 78.47
548 5 69.8928 29.6188 80.6984
549 1 69.5158 31.5487 82.7969
550 1 69.3103 32.2135 79.5341
551 3 67.2738 32.9637 81.5483
552 2 71.4324 32.6663 81.2128
553 1 75.939 28.6339 77.9926
554 1 74.8649 31.3496 78.208
555 1 72.2393 29.9771 82.3825
556 1 74.4828 29.4239 80.5264
557 1 72.1124 31.0108 79.2503
558 5 74.0684 32.3856 81.1866
559 1 76.9403 32.2912 80.2588
560 1 79.6075 32.7641 78.9047
561 3 78.0295 30.4424 78.5368
562 1 77.3748 29.3282 80.7989
563 3 79.3961 28.7234 82.6794
564 1 80.0764 30.2211 80.3881
565 3 81.7007 32.3923 80.7503
566 2 78.3244 31.1182 82.5649
567 5 84.8349 28.9448 82.1617
568 1 83.0583 30.1446 79.9187
569 4 83.8248 31.6585 82.4206
570 1 55.2077 33.6845 79.6218
571 3 54.4562 33.9115 82.3832
572 2 54.4954 36.3435 81.9966
573 4 52.5553 34.4038 80.6644
574 1 56.1819 36.5171 79.9114
575 2 58.0362 37.4004 78.1094
576 1 57.0461 34.3284 82.0789
577 1 58.2002 34.3364 79.1434
578 2 59.6962 34.4401 82.7944
579 1 59.3007 36.4189 80.9564
580 1 57.0288 37.1807 82.7836
581 4 60.2045 36.184 78.1336
582 1 61.5404 34.3387 80.504
583 5 61.8131 37.1773 82.1644
584 4 62.4954 35.3546 77.8698
585 1 64.9372 35.2873 79.3609
586 3 63.7059 35.5 81.6382
587 2 62.7485 37.1093 79.6888
588 1 64.8095 37.9258 81.3172
589 3 66.3086 37.5881 79.0832
590 1 66.3992 35.4475 82.2153
591 1 70.9741 34.6361 79.2719
592 5 69.4495 34.3569 81.8372
593 1 67.9151 35.3696 79.5296
594 1 67.844 38.073 81.2549
595 2 70.0245 36.6784 80.8164
596 2 71.2878 37.3659 82.793
597 1 71.7694 37.6283 79.0862
598 1 75.8035 34.3162 78.1481
599 3 73.6874 35.9323 78.9428
600 1 75.9544 37.323 79.0789
601 2 73.3594 33.5008 78.9818
602 4 75.2018 34.9517 80.8328
603 1 72.5205 35.1882 81.5974
604 1 73.6406 37.9125 81.3265
605 1 76.3122 36.8391 82.6255
606 4 76.773 33.8413 82.7123
607 1 79.4719 33.4332 82.0441
608 1 78.106 35.3192 80.1497
609 3 80.8862 34.8074 80.1953
610 4 80.3761 36.3386 82.3615
611 1 78.41 38.1532 81.082
612 5 82.1341 34.1148 82.8198
613 2 57.7668 38.7753 80.5024
614 1 60.5505 38.7644 79.5573
615 1 59.6089 39.2758 82.5591
616 1 64.1412 39.3986 78.8751
617 1 62.4801 39.9369 81.4784
618 3 66.7258 39.9911 79.7025
619 3 65.1578 40.5581 81.5221
620 1 68.8782 38.6339 78.5267
621 1 70.5529 39.4476 81.1997
622 4 69.0945 41.403 79.6872
623 1 67.7539 40.9182 82.2821
624 3 71.3053 40.1983 78.582
625 2 73.7922 39.5796 79.0946
626 1 75.9385 39.7759 80.8766
627 1 73.0552 41.0271 81.2984
628 3 75.2915 41.5527 82.7753
629 1 56.3078 8.03319 84.8828
630 3 58.4685 6.31205 84.5971
631 1 59.1542 7.16731 87.0234
632 1 61.2003 7.09451 84.6323
633 3 61.9176 5.18501 86.3542
634 1 59.0263 9.02436 84.3771
635 1 63.3492 5.14825 83.9801
636 1 66.0558 6.25432 83.9746
637 2 63.8952 7.60631 85.2549
638 1 64.5822 5.37346 86.8467
639 1 62.5981 7.60809 87.5839
640 2 65.6202 7.91084 87.0118
641 2 68.5052 8.30143 83.0612
642 1 67.9956 7.71116 85.7309
643 1 67.4519 4.76834 86.2289
644 1 70.8358 8.09715 84.8609
645 4 69.6175 5.38466 84.2935
646 2 69.903 6.25005 86.9714
647 4 71.8768 4.41276 87.0969
648 5 72.5812 5.85821 84.8627
649 4 72.0738 7.41386 87.4545
650 1 74.5321 6.06325 87.0668
651 2 73.5991 8.52502 85.7162
652 1 75.4426 6.70368 84.2728
653 1 73.2006 8.16555 82.9492
654 1 76.2721 8.57596 86.6025
655 1 77.8908 8.50178 83.8
656 5 51.7569 12.0801 83.0031
657 1 54.3448 10.3352 83.4571
658 1 55.0035 12.9989 84.7673
659 4 52.4975 11.5086 85.6632
660 1 54.5207 12.6416 87.7371
661 5 55.0024 10.1266 86.4154
662 2 56.9704 10.8383 84.5273
663 3 56.9227 12.2667 86.5291
664 1 57.8866 9.84075 87.1187
665 5 59.4349 11.7383 85.5784
666 1 61.2254 13.0957 83.6852
667 2 60.7096 9.45106 86.5828
668 1 61.9782 10.0724 84.2063
669 5 66.0347 9.10045 84.1771
670 3 63.8025 12.1794 84.2036
671 3 66.3707 11.5349 84.5086
672 1 64.1914 10.181 86.1547
673 1 62.1275 12.3574 86.432
674 1 65.28 13.0813 86.3366
675 1 68.9752 10.5111 84.7857
676 3 68.3925 12.8931 83.6985
677 3 70.8376 12.2739 83.8463
678 5 66.9638 10.2513 86.9209
679 1 69.8303 9.47385 87.5512
680 3 68.0135 12.4694 86.2196
681 2 70.4776 12.0432 86.7679
682 3 71.7756 10.4956 85.3744
683 2 73.2592 10.8071 83.5457
684 2 75.3734 9.48112 83.987
685 3 74.9244 12.5817 83.6698
686 1 72.8514 13.1613 85.402
687 1 74.743 11.0657 86.0661
688 3 75.8965 13.4041 85.8141
689 1 80.3275 10.2989 83.8846
690 5 77.1824 13.892 83.4038
691 2 79.897 13.1037 83.9854
692 1 77.5119 11.3733 84.735
693 1 77.3763 11.3889 87.689
694 1 80.612 11.7846 86.3889
695 1 78.6393 13.8796 86.4379
696 2 78.9092 9.47415 86.2449
697 2 82.3526 12.5284 84.1237
698 4 83.3019 12.8022 86.6319
699 1 50.7957 14.1949 85.1653
700 2 48.7046 15.3451 83.8037
701 3 51.0151 16.5803 83.5103
702 1 48.8271 14.9186 87.4258
703 4 47.0652 16.9433 85.6174
704 1 49.8549 17.0839 85.7583
705 1 48.683 18.0388 82.9889
706 1 53.1034 14.8992 83.57
707 1 55.5562 16.2339 84.5237
708 3 56.2112 14.6629 86.5529
709 2 53.374 14.7501 86.3945
710 1 52.8628 17.3983 85.601
711 2 55.43 18.693 85.9343
712 1 54.8745 16.6998 87.7042
713 1 58.0672 13.9664 84.3006
714 1 60.707 16.3353 83.8579
715 1 58.6262 14.04 87.4866
716 2 60.6567 14.6516 85.8668
717 1 58.2703 16.7476 85.8257
718 1 60.9327 16.891 87.5737
719 3 59.3208 18.6291 83.3556
720 3 60.6017 18.5439 85.4658
721 2 57.1794 18.5347 87.7772
722 5 63.5379 14.7772 84.2464
723 2 65.5584 16.171 83.2859
724 1 63.2091 15.1299 87.0285
725 1 63.0389 17.5359 85.1812
726 2 65.2972 16.4099 85.8791
727 4 69.9774 14.1818 85.2972
728 1 67.5132 17.8577 84.5798
729 3 69.9253 16.515 84.0498
730 1 67.277 14.893 85.1771
731 1 71.4358 14.3499 87.7713
732 4 69.3955 16.6392 86.5716
733 3 71.6515 14.8089 83.4769
734 1 72.2388 17.4438 82.822
735 1 74.4105 15.2489 83.7317
736 2 74.3536 15.2095 86.6837
737 1 72.0888 16.4789 85.6796
738 1 74.5777 17.9461 85.3794
739 1 76.7575 15.9699 85.5403
740 3 81.3565 14.658 85.4834
741 4 79.2452 15.5434 84.195
742 3 77.6618 17.675 83.7362
743 1 79.7213 17.0623 86.6763
744 1 81.6898 17.1558 84.2695
745 1 83.9204 15.3172 84.9731
746 2 82.6219 17.0009 86.8212
747 1 85.3255 17.6647 86.9119
748 3 84.2065 18.0437 84.5973
749 1 51.0949 19.4296 84.1905
750 1 48.8013 21.1924 82.9964
751 1 51.3472 22.5477 84.0151
752 2 50.7679 19.0932 87.2534
753 1 48.3485 19.7574 85.6107
754 3 50.5838 21.3158 86.2219
755 2 48.6769 22.7622 85.5299
756 4 54.1517 19.972 83.3759
757 4 56.5429 18.8072 83.5969
758 3 54.0103 22.4202 84.2128
759 1 53.1405 20.4601 86.0898
760 5 55.9961 21.2803 85.3367
761 1 53.1572 23.3816 86.6263
762 3 55.5647 22.8644 87.3938
763 1 58.0435 21.1684 82.9405
764 1 58.369 19.7805 85.6651
765 3 58.3943 22.6159 85.2374
766 1 60.3722 22.1452 87.0258
767 1 60.7069 21.0761 84.1735
768 1 64.8421 18.8085 83.1692
769 2 61.9374 18.8107 83.0737
770 3 63.3585 20.415 84.5688
771 1 65.4077 21.9037 83.5296
772 1 62.3451 19.9114 86.9265
773 1 65.3712 19.2313 86.2407
774 1 62.7451 22.9069 85.2156
775 1 65.3607 22.0733 86.5606
776 1 70.2848 19.1231 84.6518
777 1 70.0141 22.0994 83.715
778 5 68.5702 19.4718 87.0263
779 2 67.4925 20.8176 85.0617
780 1 68.0976 22.31 87.5219
781 2 70.3564 21.324 86.3623
782 1 67.7145 23.584 84.5928
783 3 72.8455 19.7442 84.1096
784 2 76.5152 20.025 83.7496
785 1 72.8429 22.5138 84.705
786 1 76.1032 22.821 84.1873
787 4 72.4645 19.6854 86.6064
788 4 72.4257 22.259 87.5697
789 1 74.9802 20.8572 85.9565
790 1 79.7197 19.3296 84.0962
791 3 78.3096 21.3337 85.0366
792 1 77.3479 18.9868 86.1278
793 5 79.7291 20.1982 87.0551
794 1 77.3527 22.2106 87.2882
795 3 79.8123 22.7931 86.5981
796 2 81.0082 21.6012 84.7951
797 1 79.3506 23.6084 84.0814
798 1 83.1047 20.1356 83.2623
799 3 84.9685 21.9824 82.9708
800 1 85.4058 20.3593 85.4134
801 1 82.271 19.5026 86.0294
802 2 83.2964 21.9764 85.566
803 1 85.1293 22.3138 87.6647
804 1 82.4876 23.3824 83.1214
805 1 48.7845 24.2155 83.0841
806 1 49.1477 27.15 83.8846
807 4 50.8144 25.0505 85.179
808 1 50.4041 23.6722 87.6457
809 2 48.3191 25.396 86.0858
810 1 50.3045 26.6834 87.6172
811 5 53.438 24.9312 84.1155
812 2 56.1427 25.9715 82.9637
813 1 56.0564 24.2034 85.1461
814 1 54.9293 27.0935 85.2692
815 3 52.896 26.1212 86.7326
816 3 55.253 25.3761 87.442
817 1 51.9113 27.6796 84.6971
818 1 58.5832 24.3851 83.154
819 3 60.2261 27.0777 84.1385
820 1 58.0097 24.2721 87.4197
821 1 57.8327 26.702 85.1983
822 1 60.2905 24.8608 85.6834
823 3 61.1411 23.827 83.3799
824 1 61.7006 27.6644 86.2062
825 1 64.3121 27.1336 83.0991
826 1 65.0425 24.7386 85.0483
827 3 62.4875 25.8208 84.4232
828 2 62.8392 25.1717 86.7145
829 1 64.9441 27.3174 86.3358
830 3 66.9786 26.2887 84.1562
831 3 69.4343 26.0592 84.4989
832 5 71.8143 27.7156 84.1397
833 1 70.3056 24.0721 86.162
834 2 67.2725 25.0232 86.744
835 1 68.0448 27.6908 86.0882
836 3 70.8362 26.7753 86.3485
837 1 71.7435 24.9432 83.4169
838 1 74.8814 25.67 84.3955
839 1 74.7152 23.88 86.9009
840 3 72.7064 25.2455 85.7967
841 1 73.3488 27.7919 86.5718
842 1 76.5763 27.4384 86.1377
843 2 78.387 26.6825 84.1168
844 1 80.8991 26.0721 83.5634
845 4 77.4949 24.748 85.8142
846 1 81.8961 24.292 85.8669
847 1 79.7335 26.4031 86.4954
848 2 80.5964 28.451 84.8807
849 1 85.0245 23.8691 84.8258
850 1 83.9073 26.3376 83.3405
851 2 84.1673 24.8529 87.2517
852 5 82.8129 27.0333 86.032
853 5 86.9698 24.318 87.0017
854 4 85.7246 26.556 85.7232
855 1 50.1446 30.0476 83.381
856 1 49.7469 29.3263 86.2777
857 4 49.9822 32.3578 85.2992
858 5 51.2784 31.7149 87.7552
859 1 53.066 29.7598 83.0095
860 1 51.9103 32.5744 83.0018
861 1 56.0774 28.9482 83.056
862 1 54.8161 31.9423 84.109
863 2 54.2713 29.62 85.4247
864 1 52.5179 28.757 87.4605
865 1 55.5002 28.5961 87.7523
866 2 52.0735 30.71 85.3788
867 1 54.2078 31.405 87.4923
868 3 56.67 30.1413 85.6425
869 1 56.6071 32.8642 86.3607
870 5 60.5899 31.8878 83.01
871 4 58.7882 29.3041 84.1631
872 1 57.902 32.0335 83.8805
873 1 58.7375 28.9391 87.0397
874 3 58.8439 31.5358 86.6506
875 1 61.0174 30.5079 85.524
876 1 63.7624 29.5542 84.8177
877 2 66.3915 28.8511 84.0284
878 2 63.0859 31.55 83.1191
879 1 65.8147 31.606 83.8111
880 2 63.1924 29.4835 87.5606
881 1 66.0443 30.1434 86.7091
882 1 63.3494 32.4913 85.7749
883 1 66.3294 33.2458 86.8116
884 5 69.0594 28.5509 83.3663
885 5 70.4146 29.349 85.9951
886 4 68.253 30.7356 85.152
887 3 68.6917 31.9502 87.4493
888 4 70.5455 32.3961 85.6548
889 5 74.5349 28.6421 84.1028
890 4 72.4491 32.6378 83.566
891 1 75.6147 31.0492 83.1164
892 5 75.7908 30.4129 86.2988
893 3 74.859 32.606 85.1911
894 1 72.9118 30.5849 85.399
895 3 76.1106 33.1719 87.2842
896 1 81.011 31.0486 83.1249
897 4 77.9616 29.4887 84.5976
898 2 78.695 28.998 87.0062
899 1 77.7114 32.3654 85.0214
900 1 80.5531 30.8885 86.0775
901 2 80.2358 33.2183 84.7113
902 1 83.1431 29.5073 84.5846
903 4 85.0344 28.9574 86.608
904 4 83.1981 30.8483 87.3753
905 5 82.8666 32.5497 85.0289
906 4 52.6554 33.3885 85.7973
907 1 55.3495 35.0883 84.6887
908 1 52.5863 35.4165 83.7008
909 1 54.5231 37.8509 84.4464
910 1 54.5637 34.5452 87.5913
911 2 52.8364 36.2999 86.3818
912 1 55.1927 37.5166 87.4199
913 3 57.9543 34.8537 84.7021
914 1 59.7895 36.7012 84.1759
915 1 57.4506 37.8699 85.5787
916 1 60.1387 33.5165 85.4509
917 1 59.8647 36.0295 87.0608
918 3 57.0867 35.5152 86.916
919 2 61.7985 34.1083 87.4169
920 3 62.007 35.9614 85.5287
921 1 62.3183 34.2399 83.4917
922 2 65.0033 34.1384 84.2473
923 1 64.0462 36.715 84.0032
924 1 64.2191 35.3145 86.8489
925 3 62.1711 37.8557 87.2096
926 2 66.5097 36.0484 85.0789
927 1 67.9326 33.6932 84.3204
928 4 71.0709 34.8554 84.0496
929 1 68.813 36.5757 83.6824
930 1 69.5022 35.1033 86.5032
931 2 68.1626 38.1087 85.9328
932 1 70.936 37.6338 85.5432
933 1 67.124 36.2307 87.6331
934 2 74.3898 34.2727 83.3949
935 1 73.6355 36.7522 84.2387
936 1 72.978 34.3248 86.0915
937 1 76.1431 35.0679 85.4135
938 3 74.3255 36.4277 86.9207
939 1 76.2484 38.0548 85.4414
940 2 78.6531 37.6063 83.8873
941 2 78.5711 35.1555 84.165
942 1 78.8549 34.5165 86.9769
943 1 79.0931 37.5211 86.5155
944 1 81.1111 35.6655 85.2659
945 4 81.6839 33.4868 87.4661
946 2 56.9673 39.8082 83.6568
947 3 59.794 38.5404 86.6571
948 1 61.7871 38.7851 84.7761
949 1 59.1876 40.5836 85.2656
950 4 61.7541 41.581 83.9594
951 2 61.469 40.3781 87.009
952 3 65.573 41.4863 83.8409
953 1 64.7534 38.2766 86.3793
954 2 64.0436 39.4858 83.6227
955 1 66.5213 38.6209 83.8211
956 1 63.876 41.0262 85.9334
957 2 65.6696 43.1204 86.2037
958 1 67.0003 40.571 85.9614
959 3 69.373 39.2102 83.6825
960 1 70.4994 41.7933 83.2345
961 1 69.963 40.3959 86.0266
962 4 68.0344 42.8937 84.5542
963 2 70.593 43.1083 85.7499
964 1 68.3894 42.7806 87.5969
965 1 72.3861 39.6398 83.8539
966 2 72.4663 41.3652 85.9577
967 3 74.9122 39.1429 83.3743
968 3 73.1573 42.2956 83.7901
969 1 73.5431 38.8812 86.5877
970 1 75.219 41.0214 85.4164
971 1 77.4792 39.9981 83.4737
972 3 77.8815 40.0264 86.2643
973 1 56.0993 7.58544 87.8817
974 1 55.6291 7.79374 90.882
975 1 58.131 6.39902 89.8342
976 1 58.4277 8.1562 92.25
977 2 60.6449 6.31318 91.2446
978 1 60.8003 5.45569 88.7442
979 1 61.4994 8.50034 92.6427
980 1 60.3495 8.62994 89.5228
981 1 63.4531 4.99212 89.7926
982 1 66.3555 4.16733 89.0521
983 4 65.27 7.10448 89.5098
984 2 62.758 7.63175 90.3322
985 1 64.7539 8.41782 92.0406
986 1 65.805 5.25451 91.8533
987 4 67.5168 6.65278 88.3733
988 2 69.2628 4.2076 88.3257
989 4 69.495 7.44698 89.5281
990 1 71.5531 5.57214 89.6594
991 2 71.7708 8.45613 89.7718
992 1 68.6715 4.9563 90.8785
993 2 67.3875 7.35104 91.5115
994 4 69.9609 7.46453 92.079
995 4 71.1775 4.76448 92.4722
996 1 74.4922 8.1514 89.1835
997 4 74.448 5.33233 90.0096
998 1 72.9406 7.17913 91.836
999 4 75.9315 7.40484 91.7333
1000 4 77.5139 8.72468 89.2767
1001 1 51.4437 13.1464 87.8795
1002 4 49.4835 13.3998 89.8844
1003 2 55.3197 9.90955 89.1203
1004 1 52.7682 10.3718 88.5488
1005 4 54.6132 12.3145 90.6209
1006 1 53.5562 9.89496 91.4602
1007 3 52.0711 12.2467 90.2938
1008 2 56.311 10.347 91.5381
1009 1 56.8706 12.9398 92.3777