# LAMMPS data file written by OVITO Pro 3.7.7
1742 atoms
5 atom types
0.0 250.0 xlo xhi
0.0 90.51 ylo yhi
0.0 181.02 zlo zhi

Atoms  # atomic

1 2 55.5357 26.5767 59.3475
2 2 61.4538 25.8791 59.7088
3 1 64.019 26.6912 59.2285
4 2 52.8406 31.3985 58.8004
5 2 55.4404 30.5669 58.8988
6 1 57.8438 31.3268 57.5836
7 1 57.3762 28.828 59.515
8 2 59.7118 30.4542 59.4347
9 1 61.0761 31.0852 57.0164
10 1 61.6771 28.4712 58.4381
11 1 62.5014 31.0237 59.7293
12 1 66.081 30.8217 55.9642
13 2 63.7568 29.8936 57.3464
14 1 66.214 28.5203 57.7388
15 1 65.3102 31.7729 58.7718
16 3 64.5684 29.2472 59.6901
17 3 68.9542 28.519 58.4026
18 1 71.7618 28.1338 59.0631
19 1 68.1091 31.0919 58.1139
20 1 70.9198 30.491 57.5328
21 3 53.2447 34.29 58.9195
22 5 55.134 32.8896 57.7886
23 1 57.5657 34.3373 57.3644
24 1 54.989 36.231 58.2775
25 1 57.5282 36.6033 59.5569
26 3 58.5121 34.2798 59.7618
27 3 59.7906 32.9234 58.3034
28 1 59.257 36.7514 56.9522
29 2 60.6475 34.1516 56.3281
30 2 62.3617 33.2271 58.3075
31 1 60.9396 35.3542 58.9898
32 1 63.6704 32.4699 56.2045
33 1 63.1557 35.3503 56.7291
34 2 66.3348 33.4709 56.5135
35 2 64.8699 34.3625 58.5781
36 2 63.8548 36.474 59.4224
37 1 66.0716 36.1676 56.9867
38 1 67.8537 34.0783 58.672
39 1 68.9029 35.6348 56.2477
40 2 69.8446 33.0957 56.9465
41 4 70.3258 32.6271 59.6144
42 1 70.8745 35.5231 58.6346
43 1 72.6054 33.0573 57.8325
44 1 74.1795 35.2775 59.0384
45 1 55.4155 41.2257 58.6506
46 1 56.9381 38.8054 57.6481
47 2 53.8589 38.8743 58.47
48 1 59.864 39.8058 57.1166
49 1 59.933 38.1724 59.7039
50 4 61.4417 37.237 55.1234
51 4 62.3891 40.1806 55.591
52 1 62.2242 37.9684 57.7962
53 2 62.9567 40.5849 58.0935
54 4 64.3175 37.9352 55.4879
55 4 65.3284 40.5273 55.7825
56 1 65.117 38.7152 58.3896
57 3 66.6106 40.8588 58.0065
58 1 67.6134 38.69 56.5368
59 1 70.6539 38.1258 56.8353
60 2 68.671 37.1471 58.4584
61 1 70.7724 39.0434 59.6038
62 3 71.9537 40.9102 58.047
63 1 69.2963 40.8786 57.639
64 3 72.8658 37.6307 58.4523
65 1 56.4007 44.1552 59.4711
66 1 58.1989 42.1393 57.9768
67 1 61.2689 42.5663 57.2232
68 2 60.0208 43.8561 59.3014
69 2 62.6868 44.896 58.1405
70 1 64.4869 42.7278 57.4222
71 2 67.2826 43.0902 57.2973
72 1 65.2877 45.5985 57.1939
73 1 68.0707 45.2787 58.5649
74 1 70.6185 43.5417 58.3745
75 2 73.317 42.6301 59.3787
76 5 60.516 46.5198 59.0945
77 1 63.6795 47.2515 59.3477
78 3 66.3199 47.2294 59.0836
79 2 70.2506 46.6701 59.4925
80 1 65.9568 21.2315 64.1757
81 2 64.3923 22.2046 62.1351
82 4 68.8668 21.9647 63.4842
83 2 52.7202 26.437 61.2617
84 1 53.0493 25.3242 64.0
85 1 57.9503 25.7086 60.4141
86 1 55.1087 23.037 63.9838
87 1 55.0922 25.0264 61.6824
88 1 57.749 23.7157 62.713
89 1 56.4102 25.9391 64.2884
90 1 60.4081 25.0021 62.0489
91 1 60.1253 22.8203 64.3379
92 2 58.4882 26.9595 62.8833
93 3 62.5425 23.6533 60.601
94 2 62.4388 23.2326 63.1532
95 1 65.263 24.0747 60.3867
96 1 63.4067 25.682 62.0536
97 1 66.8904 26.4778 59.8607
98 2 66.0952 25.6067 62.4311
99 2 66.7429 23.2414 62.5923
100 1 64.7223 24.0699 64.3538
101 1 68.6885 24.5664 61.1813
102 5 70.9624 24.0369 63.0245
103 2 71.7212 25.8249 61.0476
104 1 68.3757 24.983 64.0396
105 1 70.4982 27.0347 63.5853
106 1 73.2886 26.0665 63.336
107 2 50.8862 27.6232 62.9242
108 1 52.071 30.3721 61.4385
109 1 51.2445 29.9773 64.3454
110 2 49.7783 31.4431 62.6236
111 1 53.9726 28.6597 60.086
112 1 53.6047 28.171 63.1514
113 2 55.6478 30.0441 61.6422
114 4 56.173 27.5872 61.855
115 1 54.1476 31.0517 63.7073
116 2 56.6646 31.8154 63.179
117 1 57.4676 31.8858 60.4523
118 1 56.2103 28.9602 64.4783
119 1 58.2866 29.7059 62.457
120 1 59.9182 27.8971 60.725
121 1 62.7128 28.547 61.4831
122 5 60.5416 30.0496 64.1885
123 2 60.9282 27.5924 63.2723
124 3 60.7322 30.3432 61.6748
125 3 62.3427 31.9352 62.515
126 2 65.264 27.8691 61.8772
127 1 67.1486 29.3315 60.54
128 1 64.92 31.0882 61.6708
129 3 63.7541 27.3776 64.0214
130 1 63.3814 30.0016 64.0224
131 1 66.2581 29.3276 63.9433
132 2 66.7891 31.9298 63.6342
133 1 69.5643 27.422 60.7868
134 2 67.7453 27.3459 62.7228
135 2 70.0114 30.1011 60.2462
136 1 69.0758 29.7384 62.87
137 1 67.9475 32.0517 61.1511
138 1 71.2892 31.642 62.3572
139 1 72.8026 30.8541 59.8898
140 1 72.2976 28.7509 61.9953
141 2 74.5249 30.4617 62.2521
142 2 73.8924 28.5348 64.3006
143 1 48.4312 36.802 63.2637
144 1 51.258 33.2809 60.374
145 1 49.7172 36.3829 60.4739
146 1 49.0793 34.0002 62.4031
147 2 51.3753 35.389 62.1481
148 1 52.2302 33.0892 63.1808
149 3 50.4367 35.4723 64.3714
150 2 55.9458 34.2288 59.8818
151 1 54.3868 32.2485 60.811
152 3 53.501 34.6384 61.264
153 2 55.0631 33.7505 62.9542
154 1 57.4586 34.3944 62.1793
155 5 55.4009 36.2788 61.5162
156 1 53.4345 35.7947 63.7561
157 1 56.4124 36.434 64.2877
158 1 60.4064 32.8852 60.8347
159 2 59.7575 35.5656 61.5716
160 1 59.3603 32.4905 63.4886
161 1 61.6477 34.4988 63.2952
162 2 59.0512 35.1104 64.2329
163 1 63.2442 33.8937 60.7182
164 2 65.9421 33.7539 60.7997
165 1 64.7788 35.9888 62.1928
166 1 66.6315 36.3785 59.9553
167 1 64.5062 33.3428 63.5509
168 2 67.0508 34.4025 62.9042
169 2 63.2297 36.4169 64.3212
170 1 69.2398 34.7546 61.309
171 2 69.1195 32.8909 63.4929
172 1 71.6602 34.6011 62.9599
173 1 69.0713 35.4184 64.5166
174 1 72.2561 36.7983 60.984
175 1 75.0071 32.6711 60.2961
176 2 72.3812 33.8472 60.5091
177 2 73.6527 32.844 62.5477
178 2 74.2907 35.1223 61.9969
179 1 76.8134 34.8086 60.8859
180 1 76.2687 32.9294 63.4084
181 1 76.4936 36.1421 63.3989
182 3 78.5356 34.444 64.1252
183 2 48.6035 39.0749 61.8741
184 3 47.1301 39.1502 64.3585
185 2 50.7575 39.0118 60.1398
186 1 52.7507 36.9344 60.1968
187 1 51.1898 37.9621 62.6995
188 1 50.4284 41.0359 62.2688
189 1 53.0874 40.3391 60.8822
190 1 52.8167 40.1781 64.0181
191 1 55.9396 39.464 63.4598
192 5 55.6273 38.8011 60.479
193 2 57.8211 40.0489 59.9444
194 2 53.8546 38.1518 62.4591
195 1 58.1762 37.6986 62.2113
196 1 58.6057 40.7449 62.5342
197 1 62.0845 36.8275 61.4257
198 1 60.6528 37.2476 64.0952
199 3 60.6203 39.0789 62.0984
200 1 60.3261 41.083 59.9311
201 2 61.9585 41.1711 62.4108
202 1 62.8345 39.4892 60.4938
203 2 62.9789 38.7341 63.2324
204 5 65.3737 38.6675 61.3996
205 2 67.1089 40.6083 62.1035
206 1 65.5334 38.2975 64.3452
207 1 64.6057 41.0111 63.132
208 1 65.2155 41.3797 60.1834
209 5 67.7774 39.2605 59.8285
210 1 67.6294 37.1942 62.6246
211 3 69.4553 37.2067 60.7355
212 1 69.5221 39.5113 62.3849
213 3 70.5212 37.0706 62.9764
214 3 72.2397 39.2707 62.1878
215 3 71.46 41.1896 63.5043
216 1 73.6686 39.8493 59.9488
217 1 75.241 37.4297 60.7686
218 3 74.7626 39.4304 62.4197
219 1 73.6468 37.3344 63.6612
220 1 76.5196 38.8826 64.5274
221 1 76.4407 41.4772 62.7527
222 3 77.2153 38.7738 61.9948
223 2 78.6284 40.8956 64.3935
224 2 51.0462 43.4815 61.1502
225 3 53.0905 45.2177 64.1662
226 1 50.5799 45.0135 63.4913
227 1 53.0808 42.9235 62.9059
228 5 52.8586 45.6896 61.5329
229 1 53.5837 43.2943 59.9637
230 1 57.5755 43.5497 63.1664
231 1 55.7522 41.7472 61.541
232 2 55.2591 44.5234 62.1137
233 3 55.3341 42.1268 64.2244
234 1 58.5698 45.3992 61.0623
235 3 58.1969 42.6113 60.6542
236 3 59.5817 45.2361 64.1506
237 1 62.6656 42.7446 59.9033
238 1 60.5022 43.3663 62.0904
239 1 62.2222 45.1859 63.8228
240 4 62.2183 45.3383 60.8485
241 2 59.7474 42.5896 64.5074
242 1 65.3374 44.4776 59.8445
243 1 66.4257 43.5007 62.4608
244 2 63.6921 43.4297 62.2848
245 3 64.7241 44.3594 64.4963
246 3 66.5896 45.9423 63.9639
247 1 64.5529 46.2793 62.2163
248 2 68.8998 45.1627 63.5352
249 1 68.0271 42.3142 59.978
250 1 69.6693 44.5013 61.0712
251 1 71.0263 41.73 60.762
252 1 69.1348 42.3833 63.1692
253 1 71.758 43.9886 63.2077
254 1 72.5487 44.9735 60.5599
255 2 74.8121 44.5145 62.6681
256 1 73.657 41.9866 62.1186
257 1 77.1408 43.9163 64.339
258 1 55.9456 46.8386 60.9434
259 1 54.3295 47.5145 63.275
260 1 57.5207 46.847 63.5699
261 3 56.4091 49.3915 64.0066
262 3 58.5666 49.2193 62.74
263 2 58.4868 48.0829 60.503
264 1 60.573 47.2674 62.2556
265 5 61.0865 50.2397 62.5925
266 4 61.257 49.0593 59.9946
267 1 62.8218 48.1058 64.12
268 1 65.8527 49.0499 60.997
269 1 67.4315 46.3736 61.3669
270 3 63.2304 48.6799 61.62
271 5 65.7383 48.4718 63.7267
272 1 64.2222 50.8268 63.1978
273 2 68.8303 48.7441 61.0364
274 2 70.5792 46.923 61.9848
275 1 68.4878 47.9486 63.6619
276 1 70.9538 49.3938 63.6036
277 1 67.5536 50.6863 63.1183
278 1 73.2098 46.77 62.9887
279 5 57.76 21.0494 64.5594
280 1 55.4945 21.5334 66.4852
281 1 58.0167 20.4999 67.5319
282 1 60.5647 20.5333 66.0687
283 2 60.492 20.444 69.0001
284 4 61.8576 18.174 69.2249
285 1 62.9635 20.514 67.6683
286 1 65.6561 19.8034 66.6934
287 2 63.1606 21.269 64.7924
288 2 64.6036 22.2629 68.7891
289 1 67.2427 22.2657 67.9278
290 3 64.9511 22.2949 66.3789
291 1 67.8118 19.3683 68.6996
292 3 68.105 20.7339 65.8993
293 2 69.9205 20.9276 67.8653
294 2 72.5098 21.7863 67.0385
295 4 50.2512 25.4158 65.1235
296 4 52.6328 22.9083 65.948
297 1 52.3666 25.6097 67.1919
298 1 49.6408 26.2106 68.0922
299 2 57.4246 23.4225 65.5347
300 2 56.8135 23.3288 68.103
301 1 55.0558 24.7354 66.5884
302 1 57.9788 25.6123 66.9637
303 3 54.3022 27.1158 65.5423
304 1 54.0254 22.8632 68.6817
305 5 56.0684 25.7281 69.1384
306 4 59.5285 23.11 67.1466
307 3 59.1465 25.3231 64.6074
308 1 62.5341 23.308 66.5506
309 1 61.8097 25.4365 64.6457
310 1 60.8516 25.7589 67.5933
311 2 65.6441 24.5504 67.0317
312 3 67.1327 23.2281 65.4716
313 2 63.7452 26.1178 66.3745
314 1 66.1029 26.6066 64.9894
315 1 63.594 25.0713 68.9168
316 1 66.0102 27.1641 67.8818
317 1 69.8488 22.9006 66.0488
318 1 71.9579 24.3754 67.7228
319 2 70.8048 25.3312 65.5012
320 1 68.3626 25.5344 66.9664
321 1 69.4627 23.9529 69.1951
322 4 70.539 26.7136 69.2374
323 1 72.95 23.7145 65.0558
324 2 74.7174 24.6194 66.9659
325 1 73.506 26.6521 68.6115
326 3 73.2519 26.464 65.9029
327 1 75.8825 27.1336 66.4254
328 1 48.0113 31.0741 64.8844
329 5 47.304 30.2126 67.5487
330 3 51.8479 27.482 65.2811
331 1 49.2039 28.1796 65.7895
332 2 51.4134 28.2207 67.5928
333 2 53.3306 29.3579 65.9572
334 1 50.2609 30.5624 67.0518
335 1 52.9946 30.6394 68.416
336 2 52.6103 31.8492 65.957
337 3 49.1192 31.3753 69.2232
338 1 54.0501 27.8398 68.1322
339 3 57.6484 29.7098 67.2484
340 2 56.3231 27.7109 66.8793
341 1 55.4209 31.0509 66.3597
342 3 57.9863 30.9673 65.1845
343 1 58.0309 27.8158 69.0837
344 1 55.8576 30.1477 69.2066
345 1 58.871 28.0154 65.4762
346 1 60.0562 30.7289 66.9293
347 1 61.8032 28.1222 65.8595
348 3 62.8061 30.3587 66.8905
349 2 60.4463 28.3701 68.3078
350 3 64.4639 28.6408 66.1459
351 2 66.6615 29.4581 66.702
352 1 63.1126 27.9202 68.4855
353 1 64.7815 30.3174 68.8559
354 1 65.0951 31.5388 65.9937
355 1 67.5881 31.5608 68.2556
356 1 68.8429 28.5565 67.8867
357 2 68.5087 28.0243 65.2341
358 4 71.1402 27.4871 66.7249
359 1 71.3329 29.6111 64.9496
360 1 68.5906 31.0109 65.5184
361 2 70.5393 30.6147 67.3981
362 2 71.9803 29.0377 68.8488
363 1 76.2703 30.0179 64.6635
364 1 73.6795 31.3894 64.7318
365 4 76.7102 29.7765 67.4926
366 1 73.8611 29.2063 66.9519
367 3 75.0393 30.8262 68.9766
368 1 72.8504 31.8739 67.7767
369 1 78.149 27.5873 68.6112
370 4 78.8218 29.2197 66.0038
371 3 79.3038 29.973 68.4749
372 1 47.5916 34.297 65.0522
373 1 45.8792 32.606 66.7932
374 3 47.1701 34.7578 67.7981
375 3 48.5524 32.7728 67.2995
376 2 48.3665 36.5775 68.8864
377 1 44.6471 34.4487 68.8597
378 1 50.2207 32.91 65.189
379 3 52.4974 35.6102 67.9584
380 5 51.397 33.0178 68.1084
381 3 52.2615 34.474 65.845
382 1 49.9096 35.297 67.039
383 1 54.3591 33.3991 67.8851
384 3 54.289 33.4401 65.1802
385 1 56.8846 33.5885 65.2537
386 1 57.0327 35.2151 67.8558
387 5 54.5488 35.8955 66.4527
388 1 57.5658 32.3633 68.0381
389 3 59.4284 33.3487 66.1181
390 4 59.6838 36.3164 68.6954
391 1 60.3981 33.2946 68.6549
392 1 61.9745 32.4097 65.3102
393 1 61.4708 35.2316 66.4287
394 4 58.7919 36.6785 66.2266
395 1 63.2913 32.9252 67.9772
396 3 65.3776 34.8587 67.765
397 3 63.9691 34.3685 65.8547
398 1 67.0391 33.6593 65.8987
399 2 65.7454 35.6331 64.6624
400 1 67.176 36.7626 66.5746
401 1 67.8163 34.6806 68.7879
402 3 69.5199 34.1736 66.8452
403 1 72.2381 34.6916 67.3933
404 1 71.1201 32.7894 65.3231
405 2 71.6765 36.053 65.1088
406 1 70.2248 32.8085 69.0015
407 1 74.0694 34.5308 64.8846
408 3 74.8774 35.1842 67.465
409 1 75.5619 32.4989 66.7861
410 3 76.6909 34.6082 65.7015
411 1 77.7093 32.0641 69.0603
412 1 78.2766 32.2373 65.8354
413 2 79.6165 34.6309 66.6617
414 3 80.0901 32.3654 67.7942
415 1 77.4401 34.8524 68.2887
416 5 78.1618 36.7964 65.8443
417 3 48.0079 41.5505 65.1947
418 4 45.4249 37.0607 67.9636
419 1 47.729 37.0906 66.1478
420 1 47.0902 39.7756 67.1913
421 1 49.703 39.3792 64.8808
422 1 49.9142 38.4439 67.8221
423 1 51.7858 37.3466 65.7146
424 2 51.9509 40.4963 66.5788
425 1 53.2534 38.5127 68.0319
426 3 49.5752 40.9898 67.0648
427 3 54.2386 38.0797 65.0463
428 1 57.6139 41.1953 65.4457
429 1 54.751 40.4119 66.2362
430 4 56.3685 38.138 66.752
431 4 55.7721 40.2865 68.8434
432 3 58.2534 38.6828 64.7131
433 4 58.8026 39.4173 67.5207
434 1 60.6108 40.0667 64.6615
435 4 61.2823 38.1501 67.0434
436 1 61.1095 41.2149 67.391
437 1 64.0644 37.0223 66.7205
438 1 63.4452 39.837 65.7638
439 2 65.902 39.3798 67.072
440 1 67.307 40.602 64.8199
441 5 63.5552 39.2995 68.6757
442 1 65.8972 37.3404 69.1189
443 1 68.7516 39.4197 67.5846
444 2 68.6103 38.2645 64.893
445 1 70.0919 36.8526 67.0976
446 1 71.1565 38.8458 64.8496
447 3 69.8287 41.183 65.5384
448 1 71.7991 40.327 67.309
449 2 71.3792 38.267 68.9764
450 1 73.1706 37.5845 66.7864
451 1 73.7586 40.2716 64.723
452 2 75.1207 39.3845 66.8814
453 3 75.4635 36.8222 65.8011
454 1 76.2859 37.5386 68.3472
455 1 76.3429 41.4886 65.8183
456 1 76.242 41.1443 68.8565
457 1 78.3733 39.5989 67.0031
458 1 79.5275 37.1369 68.4161
459 3 80.45 39.6659 69.0189
460 3 78.8588 41.5275 69.1698
461 1 47.6056 42.6153 67.9124
462 5 48.6371 44.2642 65.7568
463 1 50.7563 43.1368 67.9854
464 2 51.2798 44.9 66.0944
465 1 50.6293 42.363 64.8992
466 1 53.2864 43.0899 65.9751
467 1 53.3193 44.4807 68.731
468 1 48.71 45.3144 68.6501
469 3 55.7328 42.7241 66.9018
470 2 57.7785 43.9214 65.8419
471 1 55.5141 44.797 64.8333
472 3 53.5165 41.7879 68.3257
473 1 56.1783 45.0946 67.8464
474 3 53.6427 45.8753 66.5533
475 1 60.2847 43.9848 66.6201
476 1 58.0895 42.3268 68.1493
477 2 58.8878 44.819 68.8435
478 1 62.4843 42.4813 64.7755
479 1 61.2563 46.2535 68.5322
480 1 63.1051 44.5722 66.8423
481 2 65.1339 42.1787 65.5475
482 1 67.1398 41.8685 67.5361
483 1 65.8576 44.7095 67.5485
484 1 67.38 43.7196 65.2547
485 1 64.1019 42.0141 68.0218
486 5 70.1936 43.8691 65.6684
487 1 72.1582 43.5204 67.9589
488 1 68.7751 44.4145 68.1007
489 3 69.8681 41.9985 67.8996
490 1 71.0711 46.2829 67.2409
491 2 74.4779 42.989 64.5911
492 3 74.0473 41.6714 67.3175
493 2 72.2653 42.3464 65.5038
494 1 75.547 43.9523 67.0006
495 5 73.0779 44.9958 65.5009
496 2 73.8597 45.654 67.9228
497 5 78.7992 42.5694 66.7922
498 2 78.19 45.1188 66.6509
499 4 80.1805 43.7756 69.1866
500 2 49.3944 46.8371 66.1031
501 5 51.032 49.3654 66.8926
502 1 51.9326 47.3622 65.0879
503 1 48.9318 48.229 68.655
504 5 51.2664 46.6015 68.0332
505 3 53.5724 49.4389 65.5745
506 1 55.5777 47.5747 65.8497
507 3 57.7941 49.0429 66.1726
508 1 56.7248 48.0127 68.4449
509 1 53.6829 48.1973 68.0635
510 1 55.771 50.7442 66.4046
511 3 55.3965 50.1495 69.2387
512 1 58.0055 50.6485 68.4352
513 3 62.1301 50.5171 64.9301
514 1 58.5688 46.4461 66.504
515 1 60.0378 48.5888 64.9476
516 3 59.6904 48.5615 67.7551
517 1 60.6739 50.9711 66.9993
518 3 62.1767 48.5864 66.9246
519 2 61.3378 46.4917 65.8978
520 1 64.5266 49.706 66.0759
521 1 64.8094 46.7641 65.7903
522 2 67.3037 49.4427 65.6736
523 2 66.3293 48.4042 67.6245
524 1 64.0429 47.3079 68.6546
525 1 63.4335 50.4142 68.7169
526 2 66.6581 46.5551 69.2133
527 1 67.9983 46.6828 66.2772
528 2 69.9169 48.6995 66.1737
529 5 70.8 46.5457 64.54
530 1 68.5391 50.0332 68.196
531 1 71.4698 49.1163 68.6359
532 1 71.7802 50.7698 66.1161
533 1 69.1715 47.3089 69.2208
534 1 73.0175 48.1161 65.7275
535 2 75.5637 48.9452 66.5922
536 1 75.5364 46.3558 65.1329
537 4 73.9608 47.9967 68.401
538 1 76.5695 46.7496 68.0118
539 2 73.8801 50.5701 68.0793
540 1 53.1791 51.1381 68.0443
541 5 57.9611 53.0395 66.8799
542 1 55.5676 52.7725 68.738
543 1 58.5973 51.1279 64.7596
544 4 60.5794 53.813 68.0212
545 3 62.6652 52.8947 69.2024
546 1 66.0392 51.6389 67.9376
547 1 63.3876 52.4229 66.355
548 4 64.4757 54.4749 67.9899
549 3 66.0458 51.7097 65.1531
550 4 66.9619 53.8565 66.4338
551 1 68.9053 51.5733 65.7092
552 3 68.4332 52.8066 68.3477
553 2 70.7334 51.7564 68.3774
554 2 56.0506 21.1611 69.4689
555 1 55.77 20.6165 72.13
556 1 58.6143 22.3493 69.7517
557 1 58.3343 19.5853 70.5867
558 1 58.2035 19.0917 73.5523
559 2 58.1612 21.7762 72.4624
560 3 60.4512 21.494 71.4217
561 1 60.8554 18.7675 72.0467
562 1 60.4267 21.0208 73.9447
563 1 62.8127 20.5142 70.7257
564 1 64.5416 18.8359 72.5161
565 1 64.9541 18.8398 69.4653
566 1 66.1798 21.2518 70.8454
567 2 66.4291 20.5512 73.8377
568 1 63.4602 21.4884 73.6551
569 1 67.5603 18.717 71.7849
570 1 70.2344 19.3589 70.4757
571 1 71.7126 20.5132 72.6746
572 1 68.7655 21.3472 72.7519
573 2 68.7892 21.5398 70.1041
574 1 71.717 21.872 69.6698
575 3 73.9097 20.9156 71.0064
576 3 75.5822 22.1392 72.6607
577 1 51.1966 23.8945 69.4117
578 3 48.8345 26.9706 73.5569
579 3 49.9125 24.7148 73.4744
580 1 49.3746 25.8869 71.1215
581 2 50.6845 22.8137 72.0415
582 3 51.9226 24.9269 71.6864
583 1 51.9453 27.2031 70.2474
584 1 51.6118 26.7223 73.5797
585 2 53.6463 25.2434 69.7503
586 1 53.4451 22.5493 71.5285
587 1 54.4063 25.4992 72.3889
588 1 56.3362 23.5925 71.0118
589 1 57.7996 26.358 71.6959
590 2 55.4068 23.0944 73.4851
591 3 59.0857 23.9894 71.7555
592 3 58.751 25.0168 69.4568
593 1 61.4956 23.7101 72.7864
594 1 61.4624 23.0603 69.4527
595 1 61.0055 25.918 70.686
596 3 59.8645 25.7537 73.3816
597 1 62.1467 27.1204 73.5757
598 5 63.8719 23.0253 71.1456
599 1 66.2973 24.4381 69.7293
600 1 66.0272 23.2951 73.0728
601 1 64.0182 25.5996 71.9808
602 3 65.2195 27.1688 70.3033
603 1 66.9999 26.0911 72.2093
604 3 68.0425 23.5344 71.3882
605 2 70.5539 22.9849 71.7106
606 3 72.0163 24.8233 70.3726
607 1 69.8736 25.503 71.8778
608 3 68.0032 26.5015 69.6905
609 3 68.5767 23.9507 73.7249
610 1 74.3283 23.3409 69.4261
611 5 72.3881 25.5967 73.3097
612 1 73.2535 23.2426 72.1215
613 1 76.4429 24.6963 72.234
614 3 74.1795 25.7331 71.1312
615 1 76.1993 25.6047 69.2526
616 1 74.8959 26.9987 73.4309
617 1 78.6353 26.9177 73.4741
618 2 77.0918 27.2193 71.2666
619 1 48.4643 28.5288 69.5011
620 1 47.0872 28.5107 72.4208
621 5 45.862 29.8297 70.1153
622 3 48.239 30.7843 71.3413
623 1 45.9263 31.2954 72.8011
624 2 50.852 29.627 69.5416
625 1 50.101 28.8371 71.9844
626 3 52.9029 29.6358 70.9737
627 1 52.1098 30.2423 73.5436
628 1 50.9202 31.8441 71.1512
629 3 53.7035 28.1051 73.0627
630 1 54.9253 30.5454 72.4347
631 1 55.0969 27.8565 70.8615
632 2 57.4063 29.2254 71.3845
633 1 56.427 28.2223 73.7672
634 2 54.1779 32.0058 70.4149
635 1 57.2813 31.958 71.1367
636 2 58.8006 30.5025 72.9421
637 2 58.9561 30.4938 69.5014
638 1 60.1842 28.6954 71.1779
639 4 59.2782 28.2339 73.8515
640 1 61.7948 30.569 69.3897
641 4 61.3676 29.988 73.6312
642 4 63.2075 30.3111 71.7918
643 2 62.9415 27.9576 71.0936
644 1 65.4506 28.6661 72.6471
645 1 67.0473 29.1358 70.1879
646 1 65.7385 31.6552 71.6684
647 4 63.3698 32.016 73.857
648 3 69.0187 27.9537 71.482
649 1 69.898 30.1356 70.2657
650 1 68.1815 30.1996 72.9138
651 3 70.443 27.6867 73.3629
652 1 72.1827 27.7295 71.3521
653 1 71.278 30.083 73.0559
654 3 73.9271 29.5081 72.8885
655 1 74.8955 28.4969 70.4032
656 1 76.8311 29.2912 73.0606
657 1 72.8427 30.9071 70.6089
658 1 75.6562 31.4785 71.5098
659 2 77.2303 29.6506 70.1282
660 2 78.4101 31.1589 71.6955
661 1 79.5115 28.6904 71.1136
662 1 79.6702 29.9083 73.9607
663 1 80.5967 31.3902 70.257
664 1 46.7451 32.4858 69.6642
665 1 44.8699 33.8599 71.8456
666 2 46.7789 35.1485 70.3094
667 5 48.1205 33.3842 72.1875
668 1 44.7576 36.7403 71.1246
669 1 48.5387 36.4936 71.6123
670 1 46.4774 35.7469 73.584
671 1 49.3082 34.0876 69.6991
672 3 52.8894 32.8053 72.7107
673 1 52.7706 34.217 70.423
674 3 50.6711 34.6927 72.0176
675 1 51.1114 36.6119 69.8794
676 1 54.7082 36.4235 69.4397
677 2 55.7655 34.0256 70.1378
678 1 55.4 33.7077 72.8007
679 1 53.8515 36.2665 72.2976
680 1 56.9762 36.1776 71.7289
681 2 58.3077 34.2982 70.2019
682 1 58.4541 33.8911 73.1566
683 1 60.3688 32.0842 71.5409
684 1 60.7513 35.1371 71.0469
685 4 61.5032 34.003 73.6719
686 5 59.942 36.5246 73.333
687 3 65.5982 32.9783 69.3195
688 1 63.2339 35.677 69.2657
689 1 63.2286 33.2008 71.0198
690 3 64.947 33.8904 73.2948
691 1 65.8687 35.0123 71.1101
692 1 63.289 36.0111 72.5847
693 1 67.6248 33.1542 73.578
694 3 67.9719 32.6281 70.723
695 1 68.8608 35.1824 71.5854
696 5 70.2763 32.5885 71.9442
697 1 71.9873 34.7326 73.0863
698 3 70.5062 35.4598 69.3278
699 4 72.4536 33.8319 70.463
700 1 74.8079 34.1461 72.4784
701 3 72.9425 32.1472 72.9928
702 5 74.9983 33.509 69.4978
703 2 75.9052 35.8301 70.5606
704 1 73.4851 36.365 69.4955
705 1 77.7287 33.8435 71.5421
706 3 77.7102 32.0859 73.7978
707 1 80.091 34.3553 69.7367
708 1 80.4069 32.7988 72.8404
709 1 77.0304 36.3126 73.1544
710 2 78.1765 36.7064 70.6515
711 1 80.1091 35.8897 72.4041
712 1 46.9527 38.4947 69.9554
713 2 46.1968 38.4219 72.6901
714 1 47.9837 40.3608 72.0393
715 4 44.4693 39.7301 70.803
716 3 46.4626 41.2715 69.9588
717 4 44.1396 39.6383 73.6782
718 3 48.698 40.4571 69.2996
719 1 51.3677 40.4889 69.3331
720 3 49.7234 38.7158 70.7151
721 1 51.1384 37.2805 72.875
722 2 52.7747 38.5156 70.7913
723 1 50.9652 40.4957 72.3156
724 4 57.3538 37.799 69.3026
725 1 53.4202 39.3429 73.3545
726 4 55.5304 38.783 71.2835
727 4 57.5504 39.1574 73.2413
728 1 53.8859 41.143 70.979
729 4 57.9556 40.3448 70.4335
730 3 55.4252 37.7328 73.8302
731 4 59.2955 38.1029 71.2597
732 4 59.6977 40.7652 72.8604
733 4 61.5878 37.8894 69.9825
734 1 61.9691 38.9809 72.8628
735 4 60.8855 40.512 70.2207
736 4 64.1822 38.3619 71.2087
737 1 67.034 37.9203 71.8802
738 1 65.3923 40.3133 73.1432
739 1 66.3424 40.2703 69.9737
740 2 64.7838 37.847 73.9354
741 1 63.6396 41.5444 70.9681
742 2 68.5943 37.2053 69.5171
743 1 69.4938 39.493 70.5695
744 2 69.3412 37.6823 73.0888
745 1 70.3611 40.084 73.4042
746 1 71.1319 37.0477 71.3179
747 3 67.922 40.7408 72.3934
748 1 71.641 41.5334 70.1639
749 1 73.8841 39.3719 69.3395
750 3 72.3547 39.3657 71.5747
751 1 73.9494 37.121 72.2896
752 1 76.1928 38.6929 71.39
753 1 74.4748 41.2574 71.566
754 3 75.8826 40.5279 73.6856
755 3 78.0125 39.1868 69.5787
756 1 79.6985 38.8727 71.5453
757 4 81.7073 37.15 70.32
758 1 78.0357 39.1292 73.9591
759 1 81.4521 38.1474 73.8847
760 1 77.6795 41.2807 71.5521
761 2 79.5621 41.4806 73.6636
762 1 46.6485 43.9581 70.5626
763 2 48.0322 42.8707 73.254
764 1 45.5435 41.9681 72.5045
765 4 46.0871 45.1263 73.1675
766 4 49.0316 45.0676 72.4297
767 1 49.2767 42.6632 70.6568
768 2 51.9693 42.8485 70.5311
769 1 51.2779 43.34 73.1635
770 2 50.7847 44.9969 70.347
771 4 51.5417 46.1643 72.7451
772 2 55.995 45.187 73.3138
773 1 53.9963 44.3058 71.6153
774 3 53.9507 42.3697 73.4983
775 2 55.6133 42.9215 69.5735
776 1 56.3719 42.0692 72.3058
777 1 57.0053 44.988 70.8298
778 1 58.4185 43.9017 73.4
779 4 58.9534 42.7956 70.7878
780 1 60.5244 45.2511 71.6606
781 1 61.5357 43.3904 69.4477
782 2 61.2416 42.575 72.0701
783 1 63.3516 44.2152 72.4701
784 2 63.9196 44.5921 69.6511
785 1 66.3158 43.0054 72.2285
786 2 66.0125 43.1977 69.6868
787 1 65.4164 46.033 71.4709
788 1 67.9432 45.1698 73.6228
789 5 68.5404 42.1771 70.1382
790 4 68.0748 44.8876 70.7708
791 1 69.81 42.9689 72.5716
792 2 70.5314 44.1074 70.0963
793 3 70.4748 45.5909 72.1495
794 1 72.1111 46.2391 69.9073
795 2 72.2724 41.881 73.0341
796 1 72.958 43.961 71.5518
797 2 74.4346 43.1888 69.4193
798 2 75.9017 43.5554 71.5397
799 5 74.9673 45.0265 73.6075
800 1 75.1034 45.9088 70.4597
801 4 76.9656 43.0182 73.7032
802 1 77.3857 43.9254 69.3282
803 5 80.6229 41.5854 71.1236
804 1 78.999 43.9299 71.9946
805 2 77.6405 45.6602 73.8711
806 1 47.4579 46.8679 70.9599
807 1 49.0457 47.7543 73.6371
808 2 50.0445 47.448 71.0002
809 1 51.7641 49.2172 72.7282
810 5 52.5305 46.9094 70.4091
811 1 51.3537 49.578 69.7985
812 5 54.1352 47.0785 72.6603
813 2 54.9543 46.4367 69.8745
814 2 53.8877 49.0856 70.7966
815 1 56.3348 48.2251 71.3398
816 2 57.7573 49.5091 73.2628
817 1 54.9011 49.8882 73.4629
818 1 58.2707 46.9016 73.0901
819 1 58.9725 47.2474 70.0248
820 2 58.5534 49.7321 70.8672
821 1 60.7434 48.5737 71.9985
822 3 62.6663 46.4951 70.8616
823 2 61.4773 48.7189 69.4347
824 2 62.5709 49.8757 73.7605
825 1 63.6006 48.9428 71.2692
826 1 66.3387 49.2001 70.1954
827 2 65.656 48.2142 72.9176
828 1 65.2483 50.899 72.7672
829 1 62.95 47.0491 73.5678
830 3 67.5728 49.9079 72.6087
831 1 68.2528 47.5343 71.975
832 1 69.7939 50.2824 71.0091
833 2 70.8584 47.9559 71.4337
834 1 72.0341 49.6586 73.118
835 1 73.0642 46.8753 72.6658
836 2 73.37 48.7143 70.7972
837 1 76.0806 47.7183 72.6372
838 1 75.9681 49.0599 69.9402
839 1 74.8456 50.5341 72.3383
840 4 78.0605 46.5144 70.7231
841 1 53.461 51.6514 71.2133
842 3 55.2412 53.7878 71.1976
843 1 56.4738 51.3459 71.4185
844 1 57.3575 54.024 72.8423
845 3 54.883 52.6501 73.4942
846 1 58.2543 53.2866 69.9988
847 1 59.4975 51.6476 72.6662
848 1 60.7882 54.1564 71.2942
849 1 60.6068 51.2109 69.9067
850 2 62.6709 54.1292 73.4163
851 1 62.6646 51.8729 71.8529
852 1 63.7283 54.7128 70.862
853 1 66.6682 54.4516 69.833
854 3 64.8637 52.2432 70.3297
855 1 67.4698 51.9333 70.8352
856 1 65.6724 53.8173 72.8416
857 1 68.6215 54.4067 72.2862
858 3 67.778 52.2441 73.5744
859 2 69.9817 53.0777 70.3495
860 1 70.9921 52.4786 72.8858
861 1 72.599 51.3327 70.4739
862 1 52.3407 22.2307 76.8058
863 5 53.8334 21.0859 74.4549
864 1 56.806 21.281 74.9423
865 1 55.1515 20.8088 77.4785
866 5 57.6251 18.944 76.5114
867 2 62.4462 18.9044 74.3177
868 2 59.2089 21.1096 76.3272
869 1 60.3218 18.7921 78.1677
870 2 60.2441 18.7224 75.4694
871 1 62.1445 20.7936 76.4735
872 1 60.2988 21.8724 78.6128
873 1 63.1178 18.1832 77.4386
874 5 64.6529 19.6257 75.6061
875 1 67.0809 19.5565 77.1103
876 1 66.4822 17.7971 74.5442
877 1 64.6573 21.1821 78.3485
878 1 65.6528 22.3411 75.8552
879 1 69.0754 19.1532 74.6897
880 3 69.5718 20.4851 77.6578
881 1 71.5367 20.4119 75.7707
882 1 67.5889 22.2769 78.5081
883 1 68.6052 22.0799 75.654
884 3 72.0233 20.5577 78.4583
885 3 73.6259 21.5293 74.2696
886 1 73.6895 22.2107 76.9108
887 1 47.9399 27.1395 78.2831
888 2 50.1513 23.1908 75.37
889 1 50.1038 23.9428 78.0133
890 1 52.5462 23.7877 74.1105
891 2 52.0912 25.209 76.336
892 1 49.5807 26.0988 75.9334
893 1 53.2221 24.5968 78.6408
894 4 56.69 25.201 74.1365
895 2 57.3681 22.6218 77.2496
896 1 54.9239 23.5151 76.1381
897 1 56.5516 25.5077 77.6095
898 1 54.3906 26.3843 75.3367
899 1 59.4332 24.4363 77.3188
900 1 58.7644 23.5057 74.5021
901 4 58.4196 26.5653 75.5774
902 2 61.202 23.0832 75.5452
903 2 61.2666 25.564 75.6397
904 1 61.6079 26.3676 78.5036
905 1 62.8074 23.6676 77.656
906 3 59.1061 27.24 77.924
907 1 63.6544 24.3893 74.8409
908 2 65.5551 24.2688 77.6776
909 1 64.0989 26.6474 76.8564
910 3 64.8283 26.742 74.2532
911 1 66.7881 25.3636 75.2624
912 3 66.7579 26.5467 77.75
913 1 68.7156 24.75 77.3615
914 1 71.1776 23.0267 74.3569
915 1 70.9842 23.0011 77.5892
916 1 69.981 25.7603 75.0055
917 1 71.4639 26.2564 77.9273
918 2 72.4479 24.7378 75.9579
919 3 73.4613 24.5929 78.3588
920 1 74.6803 24.0065 74.6345
921 2 75.7019 23.8351 77.4963
922 1 74.5871 26.3408 76.591
923 1 77.3052 25.0992 75.4117
924 1 77.0784 25.9279 78.3692
925 2 46.0357 30.8341 75.6129
926 1 47.4965 28.4174 75.5629
927 2 46.3841 29.4525 78.1054
928 1 48.4776 30.9826 77.1758
929 1 48.6832 30.7088 74.0091
930 3 49.7913 28.6587 77.144
931 3 50.1384 28.7044 74.7553
932 1 52.1932 27.9927 76.226
933 1 51.327 30.9173 76.2853
934 2 54.3436 29.4887 75.0106
935 2 53.7301 29.8721 77.2846
936 4 56.0834 28.3628 76.7394
937 1 55.8816 31.3645 77.2182
938 1 56.8758 31.2887 74.4631
939 1 58.5277 29.7748 76.6116
940 1 61.0272 28.2317 76.1736
941 4 62.365 31.0482 76.0655
942 1 59.8204 32.0086 75.0564
943 1 60.5292 32.0545 78.0786
944 1 62.9168 29.2478 78.1848
945 4 63.771 29.1291 75.0595
946 1 66.4631 28.5075 75.7664
947 3 65.2049 30.5004 77.1415
948 3 65.7523 30.8661 74.3052
949 3 68.1246 27.5932 73.9872
950 4 67.7248 31.3652 75.8742
951 5 69.5989 29.4248 75.3111
952 1 67.8838 29.6878 78.1576
953 3 68.8131 27.3977 76.7141
954 5 70.7155 28.958 77.743
955 2 70.0938 31.5048 77.232
956 1 72.2761 27.7414 75.2706
957 1 72.4634 30.6306 75.7442
958 2 73.3593 28.8152 77.7084
959 2 74.6938 29.0391 75.4563
960 1 76.0701 28.6291 77.9078
961 1 74.7409 31.4413 77.4891
962 1 75.1086 31.4436 74.4327
963 2 76.697 27.6975 75.3448
964 1 79.0583 27.7895 76.4588
965 1 77.4415 30.3622 75.9632
966 3 79.7058 30.2627 77.5835
967 1 47.2938 33.2283 74.9208
968 1 44.4451 33.436 74.8148
969 1 45.6173 35.3293 76.8699
970 1 46.1193 32.6575 77.8625
971 2 43.9123 36.2512 74.027
972 2 47.8979 36.3205 76.0066
973 3 49.1364 35.2727 73.9747
974 1 50.5083 32.9779 74.1216
975 3 52.2718 34.9434 74.0087
976 1 49.1211 33.9565 76.9195
977 1 52.1423 33.8448 76.5631
978 1 50.6365 36.3149 75.8609
979 1 53.2972 36.299 77.6487
980 2 53.3729 32.0621 78.3259
981 1 54.004 32.2288 75.0716
982 2 54.7463 33.8705 77.2671
983 5 54.6415 35.3321 75.0819
984 3 56.6877 33.7778 75.3482
985 2 58.0692 32.8361 77.1102
986 1 56.7599 35.6196 77.4456
987 1 57.4604 36.4117 74.7179
988 5 59.4398 34.7768 75.9519
989 4 62.3798 33.8832 76.1664
990 4 61.1653 35.6246 77.8611
991 4 61.8363 36.5125 75.243
992 1 63.5074 32.4353 78.3063
993 1 65.3464 33.1094 75.865
994 1 66.4544 32.4873 78.6449
995 3 66.2875 35.3291 76.9987
996 2 64.2527 35.5622 75.1951
997 1 66.6614 35.9436 74.1895
998 4 63.5614 36.6109 77.423
999 1 68.6777 33.9419 76.8268
1000 1 70.5672 32.6312 74.7993
1001 1 69.5335 35.5515 74.518
1002 2 70.1264 36.385 77.7414
1003 1 71.8751 35.2952 76.1601
1004 3 68.1602 36.8025 76.3802
1005 3 72.2789 32.8546 77.1307
1006 3 73.4527 33.3956 75.0399
1007 1 74.4623 34.6023 77.3077
1008 1 76.3004 34.026 75.0333
1009 3 74.2232 35.8233 74.6386
1010 1 76.3984 36.788 76.2263