# LAMMPS data file written by OVITO Pro 3.7.7
1985 atoms
5 atom types
0.0 250.0 xlo xhi
0.0 90.51 ylo yhi
0.0 181.02 zlo zhi

Atoms  # atomic

1 1 61.1778 26.4212 81.7983
2 1 58.4139 27.6759 82.0323
3 1 64.2431 26.0798 82.0571
4 1 53.178 30.3475 82.5046
5 3 55.8205 31.5272 81.3342
6 1 58.5017 30.4074 80.7954
7 2 60.424 28.5025 79.9888
8 5 60.5722 32.3639 81.7369
9 1 61.0044 29.5095 82.5034
10 1 62.2597 30.7276 80.0787
11 2 60.349 32.5325 78.9931
12 2 63.0596 28.1242 80.6583
13 2 63.7399 29.8204 82.3128
14 1 65.9076 28.4411 81.2426
15 3 64.9988 30.7388 80.0569
16 1 65.8433 31.3067 82.6689
17 1 67.923 30.4742 80.3836
18 1 70.85 30.0249 81.6359
19 5 68.6802 28.0408 82.5016
20 2 72.757 32.1015 81.384
21 1 53.383 33.3672 81.9447
22 3 55.9771 33.9451 82.0492
23 4 55.284 34.3728 79.597
24 1 57.3555 36.1888 81.0206
25 1 54.4194 36.3212 81.6478
26 1 57.9259 33.281 80.2121
27 1 59.1982 35.6108 78.6856
28 2 59.5263 34.775 81.8551
29 1 60.2441 37.3981 80.8135
30 4 62.0902 36.1846 77.6648
31 1 61.6695 34.6985 80.1231
32 2 62.8363 37.3075 80.1448
33 1 63.4079 32.8672 78.3715
34 1 66.433 33.0104 79.5018
35 1 63.9415 33.034 81.2543
36 1 64.6501 35.4943 79.148
37 3 63.7283 35.6457 81.6839
38 3 66.5289 37.0575 79.92
39 1 66.2646 35.063 82.047
40 1 70.0103 32.7432 80.0751
41 3 67.8916 32.8848 81.729
42 5 69.1383 35.0752 82.3907
43 1 68.4317 35.2745 79.6496
44 2 70.411 36.9349 80.7682
45 1 71.9739 34.8567 81.4887
46 1 74.8239 35.3758 82.5815
47 5 52.1315 38.3759 81.8114
48 3 52.6777 40.9345 81.8937
49 2 55.8426 38.1996 79.868
50 1 55.02 39.5516 82.0719
51 2 57.8743 38.7757 81.7285
52 1 57.3509 41.0736 80.4645
53 3 54.7777 42.0328 80.9819
54 1 58.424 38.6351 78.947
55 2 60.0691 40.5864 80.2649
56 1 61.4626 38.9726 78.51
57 1 62.7142 39.9667 81.1051
58 4 63.2447 41.5349 78.6825
59 1 64.7232 38.903 78.9488
60 1 64.9501 37.9956 81.8197
61 3 66.8293 39.4872 80.5262
62 3 65.2329 40.6403 82.0796
63 1 66.0363 41.7934 79.7599
64 1 67.9426 41.0836 82.3339
65 1 68.7438 38.3221 79.1761
66 1 68.048 37.7639 82.0479
67 1 70.487 39.5957 81.6948
68 4 69.0648 41.1802 79.4874
69 1 72.8726 37.7072 81.8917
70 1 56.7115 43.6612 81.927
71 3 54.0315 44.3824 81.958
72 3 56.4153 46.4998 82.1742
73 5 59.5145 42.5074 82.2605
74 3 58.6153 43.5649 80.0484
75 1 58.9676 45.7194 81.9397
76 4 61.229 43.0275 80.0269
77 2 61.6259 47.2855 81.8867
78 4 61.5749 44.5165 82.5218
79 2 65.6645 44.4942 80.0488
80 1 63.7827 42.8856 81.422
81 3 66.2587 43.0988 82.3338
82 5 63.8971 45.924 81.431
83 1 66.7969 45.7627 82.33
84 1 68.2976 43.7558 80.6344
85 1 70.962 42.6885 81.6803
86 3 69.6719 45.8079 82.1292
87 1 57.2446 22.1035 87.6301
88 1 60.4138 22.5493 87.1894
89 1 65.6428 22.7304 86.1319
90 1 68.261 22.5683 87.4561
91 3 51.1766 26.9159 86.7206
92 2 56.1616 26.4738 83.4255
93 1 53.2522 25.3373 85.8585
94 1 56.1861 24.4837 85.3867
95 3 55.6106 25.541 87.7212
96 1 55.1867 27.5417 85.8025
97 1 54.2811 23.2221 87.7365
98 1 58.8234 25.1063 83.43
99 1 58.0495 27.2024 85.4874
100 3 60.3366 27.4633 84.1048
101 3 58.5667 23.2926 85.4284
102 1 58.2309 24.8757 87.6251
103 1 60.4915 25.5154 85.9135
104 3 60.7532 23.3515 84.1963
105 3 62.3108 25.3428 83.9109
106 1 62.8671 23.6287 85.8484
107 2 62.9285 26.3968 86.3756
108 1 65.0958 25.519 84.8718
109 3 66.8521 26.1575 82.8136
110 2 67.0623 25.026 86.9595
111 1 67.8682 24.1593 84.5025
112 3 69.9837 26.1466 84.0738
113 1 70.2849 24.4168 86.2279
114 3 70.4313 27.1495 86.3704
115 3 72.3707 26.0453 85.3462
116 1 67.7733 27.0425 85.2537
117 4 74.7014 26.3174 86.6835
118 1 48.2609 31.5816 87.603
119 1 52.3714 27.9696 84.4507
120 1 49.8989 29.4148 86.1376
121 1 52.5825 29.1895 87.1952
122 2 51.9255 30.8584 84.8936
123 5 51.1313 31.9274 87.3137
124 4 49.6191 32.3264 84.9648
125 1 55.9359 29.2384 82.9951
126 1 55.0798 32.0396 83.9099
127 2 54.1403 29.83 85.0568
128 1 54.0693 31.9068 86.76
129 3 56.437 30.1344 85.6378
130 1 58.009 32.2842 83.071
131 4 58.5239 29.6397 84.1781
132 1 58.5398 29.8414 87.2577
133 3 59.444 32.3776 87.1355
134 1 61.3244 28.6641 86.3928
135 1 60.5879 31.33 84.8598
136 2 62.6722 31.8664 83.2381
137 5 61.6842 31.3321 87.5451
138 1 63.031 27.8798 84.0278
139 1 63.8583 30.5223 85.2014
140 2 65.6906 28.2938 83.8516
141 1 65.0893 28.063 86.6046
142 1 66.9439 30.1962 85.2868
143 1 65.5956 32.486 86.8219
144 5 71.9261 27.9051 83.4458
145 5 69.9284 29.2117 84.9073
146 4 68.5553 30.7247 83.1535
147 3 68.223 31.6516 87.2121
148 1 72.3875 30.7864 84.2662
149 4 69.9681 32.1177 85.5763
150 1 68.4453 28.7521 87.4361
151 2 70.7641 30.4256 87.2431
152 5 74.6287 28.8398 84.2603
153 1 72.6773 28.6473 86.3202
154 5 75.94 28.8978 86.7689
155 1 77.1486 31.5293 86.3287
156 4 74.9411 31.4297 83.0638
157 3 74.4817 31.0378 86.0488
158 5 47.04 34.3962 87.2587
159 2 47.8506 37.0724 85.7393
160 2 52.2024 35.5408 83.3449
161 4 52.389 33.4334 84.8754
162 1 50.0441 35.1193 85.8517
163 2 53.0729 36.0717 85.9854
164 3 57.5877 34.9086 83.4618
165 1 54.9833 34.9554 84.3904
166 1 55.2658 34.6303 87.4593
167 1 57.1344 32.7391 85.8409
168 1 55.8331 37.5045 86.5494
169 3 57.3052 35.4587 85.7576
170 1 56.6471 37.5321 83.7362
171 5 62.195 37.4851 82.8556
172 1 59.5138 36.7874 83.672
173 1 59.6816 34.1702 85.1009
174 1 59.2663 36.9108 86.6738
175 1 61.926 34.5504 83.1805
176 2 60.9628 34.7724 87.4927
177 3 61.7063 36.1168 85.3703
178 2 64.7389 33.5376 83.9573
179 1 67.5048 33.2936 84.4312
180 1 64.3896 36.3662 84.3073
181 1 62.7383 33.3565 85.7769
182 1 63.6413 35.7443 87.1685
183 2 65.8738 34.9271 85.9622
184 1 66.7323 37.0108 87.5993
185 1 70.4988 32.7102 82.9541
186 2 70.4506 37.0339 83.3943
187 4 70.2774 34.8427 85.0008
188 1 67.7077 36.4733 84.6966
189 1 68.409 34.5545 87.1407
190 1 71.4452 35.7581 87.6172
191 2 73.0267 33.4285 83.5983
192 1 72.7889 35.9667 84.5421
193 1 72.662 33.1218 86.3086
194 1 75.3705 33.514 84.9505
195 3 74.3449 35.2257 86.7225
196 1 76.079 36.6334 85.1422
197 1 77.5474 34.6074 86.7074
198 2 49.8278 40.3677 83.2536
199 1 50.5687 37.6071 84.199
200 1 52.19 40.2378 84.5047
201 1 51.4335 40.7726 87.3475
202 1 49.0946 39.5958 85.9297
203 1 51.2033 37.6556 87.1287
204 1 57.1133 40.3663 86.624
205 1 53.6638 37.7538 84.163
206 1 54.3582 42.2488 83.6964
207 1 57.2938 41.0365 83.5855
208 3 55.1986 39.7888 84.8195
209 2 53.4527 38.8756 86.6502
210 1 54.2356 41.4256 86.6994
211 1 59.8754 41.5104 85.3639
212 1 60.1332 39.6886 82.8452
213 3 58.6189 38.9727 85.0313
214 4 62.0275 41.7328 83.3739
215 1 61.4079 38.742 85.4826
216 2 62.6397 41.0464 86.2385
217 2 63.4932 39.4996 83.8589
218 1 66.204 39.0648 84.3189
219 1 64.7222 41.8747 84.3924
220 1 64.2164 38.5866 86.5497
221 2 67.3883 39.4619 86.9979
222 1 65.3465 41.3232 87.2332
223 3 69.0155 39.1065 84.1637
224 1 71.8102 38.9844 84.5012
225 1 70.309 41.5354 84.3274
226 1 69.7765 37.8958 86.4424
227 1 69.8402 40.9397 87.2503
228 4 67.6862 41.2113 85.1908
229 2 72.3192 40.5029 86.5521
230 1 73.2786 40.8077 82.7449
231 3 74.4411 38.2908 83.9533
232 3 72.6483 42.3507 84.8499
233 3 74.3283 40.2899 85.2615
234 1 73.4498 37.8487 86.6881
235 3 75.9364 38.8218 86.6203
236 1 74.273 42.3886 86.9549
237 1 76.8601 41.0473 85.627
238 1 78.5065 38.343 86.3748
239 1 79.0824 41.2025 87.5389
240 1 51.2577 42.8538 83.0115
241 1 52.5969 45.2199 84.0754
242 2 52.2858 42.7874 85.4879
243 1 49.6361 42.6242 85.6024
244 3 49.8908 44.9991 84.2408
245 3 49.6901 46.7937 87.0893
246 3 51.1235 44.8496 86.2631
247 1 53.9931 44.4144 86.7349
248 3 56.2749 42.8145 85.6391
249 1 55.5399 44.9918 84.2714
250 1 57.0492 45.3037 87.0649
251 1 57.3479 47.2733 84.6825
252 2 54.7943 46.9847 86.1024
253 1 58.4404 44.0665 84.5116
254 3 58.2131 42.7749 87.1133
255 4 60.3603 46.2454 84.4755
256 1 60.0932 44.9082 86.9484
257 1 62.3787 43.7827 85.2846
258 2 58.975 47.3714 86.7476
259 4 62.9456 46.6893 84.18
260 2 64.4725 44.5104 83.5908
261 1 66.88 43.809 84.9023
262 2 64.9968 44.2286 86.6649
263 1 65.6247 46.424 85.168
264 5 62.8515 46.1011 87.0376
265 2 68.878 43.6393 83.2277
266 1 71.4262 44.6151 84.0054
267 3 69.4315 43.7128 85.72
268 2 67.7242 42.6221 87.2716
269 1 71.5727 43.5166 87.101
270 1 68.2051 45.273 87.5893
271 1 68.6738 46.1779 84.6577
272 1 70.9204 46.4149 86.5786
273 1 75.088 42.8514 84.1467
274 1 76.3898 44.2989 87.2837
275 2 73.6904 44.7559 85.5381
276 2 75.7893 47.1059 87.5838
277 1 52.0581 47.5789 85.7183
278 1 54.3105 47.6423 83.4755
279 1 55.2914 49.6951 85.4487
280 2 56.682 49.1878 82.899
281 3 54.2819 51.3446 87.4052
282 1 57.0125 51.6245 87.6659
283 1 59.51 48.6073 83.0286
284 1 58.3649 50.2127 85.2875
285 1 62.5504 49.5767 83.3194
286 1 61.0928 48.7514 85.7718
287 1 62.4188 51.5461 85.6162
288 1 65.1503 48.2833 82.7209
289 3 66.7836 48.7109 84.7366
290 1 64.1068 48.7755 86.1607
291 1 65.2307 50.9444 84.4767
292 2 64.6654 51.6233 87.2307
293 1 66.8788 50.0411 86.9818
294 1 68.4231 48.3932 82.7399
295 1 71.2347 47.6453 83.8334
296 2 67.6169 47.5994 86.7847
297 5 68.189 50.9775 84.4903
298 2 69.3284 48.7955 85.4591
299 5 71.7707 49.6007 86.2215
300 1 69.5346 51.3357 87.1866
301 1 73.6142 47.4423 85.8762
302 1 60.0879 52.4502 87.3278
303 1 67.0312 52.9897 87.6001
304 2 57.3886 21.5589 90.6149
305 1 55.3198 21.8831 92.3656
306 1 59.3891 20.5748 89.035
307 4 58.1347 19.1804 91.6254
308 4 59.8475 21.4342 91.6358
309 2 61.5369 22.1925 89.7962
310 1 62.6908 21.2657 92.227
311 2 63.337 22.2772 88.0798
312 1 64.4303 20.6002 89.9682
313 3 65.792 22.5696 88.8195
314 4 66.2453 19.6359 92.3679
315 2 65.7219 22.2006 91.6376
316 1 67.8934 21.4643 90.3134
317 3 70.241 21.1337 88.9328
318 2 68.9956 19.6724 92.3493
319 1 70.6719 21.8675 91.6454
320 2 46.559 27.6299 92.4241
321 1 51.5927 24.5191 88.2179
322 1 51.4811 27.128 89.4027
323 3 48.6509 25.184 92.6196
324 3 50.6347 25.0382 90.8358
325 5 52.9543 23.2766 91.194
326 1 52.8154 26.2837 91.9958
327 1 48.9864 27.4136 91.1014
328 3 53.6718 26.9453 87.9589
329 3 53.6764 25.1524 89.6048
330 1 56.2126 23.8534 89.8374
331 1 55.492 26.9309 90.0123
332 2 57.269 27.4191 88.0204
333 4 55.3601 24.9575 92.1853
334 2 57.0407 27.1685 92.5148
335 3 59.0923 23.2904 89.6528
336 2 59.8193 27.1661 88.171
337 1 58.4077 25.9416 90.3438
338 1 57.985 23.685 92.519
339 1 61.4685 24.8961 88.7605
340 3 60.8256 26.9307 90.5965
341 1 60.8131 24.2631 91.6298
342 1 64.6113 25.022 88.0314
343 1 67.2828 24.453 89.8632
344 1 62.9921 27.5475 88.8946
345 2 66.5642 27.0109 88.4961
346 1 63.8105 23.6039 90.4974
347 1 66.2761 24.4788 92.7595
348 3 62.8314 25.899 91.3771
349 1 65.2626 26.3752 90.8382
350 1 70.1837 23.7365 89.4349
351 5 69.0584 26.0623 88.2326
352 1 72.2224 25.7193 88.1748
353 2 69.0615 24.5361 92.0346
354 1 68.1723 27.5074 90.7169
355 3 70.5518 26.1301 90.4373
356 4 72.9121 22.8489 89.1903
357 1 72.4046 24.4557 91.6568
358 1 74.7831 25.311 89.693
359 4 75.0452 23.0855 91.7376
360 3 74.7901 25.8034 92.4122
361 1 77.2022 25.2181 91.603
362 1 72.9396 27.3478 91.1836
363 1 47.4057 29.5641 89.7335
364 1 46.3215 30.4079 92.4785
365 1 46.1837 32.3566 89.8162
366 2 49.0692 27.7675 88.2057
367 1 50.4973 29.9625 89.3102
368 2 48.9268 32.3181 90.1581
369 3 53.005 30.9413 89.1414
370 3 51.3896 28.5509 91.751
371 1 49.3308 30.4201 91.9248
372 1 52.5874 30.8046 91.9919
373 1 55.4165 29.43 88.1028
374 2 53.4319 28.7536 90.0113
375 1 57.7444 28.9293 90.2608
376 1 55.404 31.0441 90.6154
377 2 56.3558 32.018 88.2318
378 1 54.8369 28.6597 92.2561
379 4 57.2576 32.5247 92.2087
380 4 58.3356 31.7118 89.6672
381 1 59.9593 28.6496 92.4293
382 4 60.0131 31.4718 91.7483
383 1 60.6462 29.4379 89.4889
384 2 63.8705 30.158 87.9737
385 1 65.4141 29.1004 89.9808
386 3 66.3538 30.2186 87.901
387 1 65.8521 32.02 89.9256
388 1 62.9178 28.5414 91.836
389 2 65.5902 28.4964 92.6173
390 2 66.9738 30.3504 91.7888
391 1 64.5248 31.2452 92.6319
392 4 62.849 31.0032 90.3333
393 1 68.6441 30.4696 89.6863
394 1 70.9786 28.2834 88.8952
395 1 69.2799 29.6036 92.6592
396 4 71.4082 30.1381 90.7568
397 4 72.2993 32.4506 90.8969
398 2 69.2809 32.5668 91.2046
399 1 73.2472 31.0645 88.457
400 5 74.0522 28.2502 88.7598
401 1 76.1179 30.5931 89.1264
402 2 74.0977 29.9611 91.1608
403 1 76.1225 27.859 90.7112
404 1 76.5097 30.4168 92.4408
405 3 78.2711 29.6285 90.4746
406 1 79.8848 30.4238 92.4336
407 1 78.7967 31.8628 88.8261
408 2 77.8957 32.3024 91.3566
409 1 45.5794 36.8735 88.1955
410 3 44.6415 34.6734 89.5547
411 1 47.2202 35.1402 90.1528
412 1 44.9351 34.0227 92.2646
413 1 44.6454 36.9495 91.2134
414 1 47.7061 33.1084 92.4444
415 5 49.5503 34.1816 88.5243
416 1 52.3738 34.3994 87.8052
417 1 48.6089 36.9428 88.2816
418 1 51.4056 36.2802 89.8257
419 1 51.5928 32.9568 90.2942
420 2 49.6475 34.7516 91.3121
421 1 52.3735 35.039 92.3408
422 3 54.1456 32.9444 89.2658
423 3 56.2374 33.7637 90.1253
424 3 53.9505 35.0985 90.1337
425 2 53.7244 36.9388 88.3916
426 1 56.3684 36.3988 89.5556
427 3 54.1286 33.0574 91.8526
428 1 55.676 35.227 92.4174
429 3 57.8342 36.9132 91.7956
430 3 61.8092 37.4685 88.011
431 1 58.2095 34.4413 88.1983
432 4 58.7532 34.4869 91.1246
433 1 59.5195 36.8355 89.6126
434 5 61.9232 35.4227 89.923
435 1 62.2764 33.3971 92.0376
436 4 60.6 33.0252 89.5131
437 1 60.4205 36.5493 92.7258
438 1 63.465 33.3155 88.8146
439 3 65.9314 34.5616 88.6092
440 1 64.5266 36.7146 89.6869
441 2 64.8016 34.1939 91.1566
442 1 63.2114 36.2938 92.3709
443 3 65.7799 36.2648 92.0868
444 1 66.9961 32.8835 92.7231
445 3 68.0133 33.0404 89.1477
446 1 70.5743 32.8037 88.5578
447 3 69.1353 36.4897 88.9164
448 1 67.6067 35.0345 90.6821
449 3 68.8613 36.7347 92.4032
450 1 70.6981 35.0372 90.5968
451 3 75.4612 32.9975 87.7986
452 1 73.5991 34.3255 89.124
453 1 73.1625 37.1348 89.9359
454 1 75.7703 36.6971 88.4465
455 2 72.9953 34.5498 92.0232
456 1 75.184 32.7201 90.9573
457 1 75.366 35.7934 91.7264
458 1 77.2902 34.3678 89.5988
459 2 77.6424 37.1646 90.8455
460 4 80.1365 34.4256 88.1102
461 3 78.4551 36.6439 88.4085
462 1 78.1811 34.8398 92.376
463 1 80.4159 33.155 91.1175
464 1 80.1024 36.0977 90.4536
465 1 46.906 39.5797 87.9609
466 2 46.8633 38.0582 90.2353
467 2 45.0946 39.9947 90.226
468 1 46.2683 39.2954 92.623
469 3 46.0814 42.0428 91.6575
470 1 48.1037 40.5763 90.6008
471 2 51.657 37.7195 92.3371
472 2 48.8695 41.5765 88.0026
473 3 49.6588 39.3139 88.8389
474 1 52.1363 39.2231 89.8695
475 1 49.2554 37.7558 91.1828
476 1 50.6702 40.2612 92.4269
477 1 50.6411 42.029 90.0092
478 3 57.6413 38.3657 88.3987
479 3 56.7528 38.7888 90.8533
480 2 53.3579 41.5904 89.3619
481 1 55.0495 39.359 88.7896
482 1 54.2258 37.5695 91.2076
483 2 53.3655 39.723 92.5126
484 1 55.3206 41.0078 91.2112
485 1 57.7988 40.851 89.4889
486 1 59.4417 39.1757 91.3283
487 2 60.141 41.6744 90.3962
488 1 60.0209 39.5507 88.0342
489 4 60.5786 42.2809 88.0325
490 3 61.958 40.1627 91.4517
491 3 61.9075 37.9449 90.5586
492 2 64.776 41.4573 90.106
493 1 62.8005 39.9899 88.9224
494 3 65.4392 39.1917 88.9136
495 1 64.3994 39.0012 91.5297
496 1 67.2733 37.9912 90.4589
497 1 66.4586 41.0329 92.3885
498 1 67.4688 40.919 89.5373
499 2 69.1313 38.9517 88.8406
500 2 71.6289 38.9265 88.4557
501 3 72.1796 41.4511 88.761
502 2 68.7498 39.5205 92.1853
503 1 70.5802 38.0178 90.8729
504 5 71.8991 42.2703 92.6694
505 5 70.3002 40.9061 90.5683
506 3 76.5586 41.6059 88.2134
507 1 74.4665 39.906 88.4738
508 1 73.111 40.2096 90.9511
509 3 73.7067 37.9213 92.5346
510 2 75.3812 38.4975 90.7331
511 1 76.329 41.0236 91.0746
512 1 80.2156 38.7352 89.1446
513 1 77.3866 39.1997 88.9927
514 4 78.7577 39.3959 91.8169
515 3 81.1602 38.1568 91.798
516 2 79.423 41.2686 90.1872
517 5 81.2094 40.6822 92.7386
518 1 78.873 42.4499 92.5576
519 1 46.5587 42.5232 88.9718
520 4 46.7724 45.6713 89.5898
521 3 46.9371 45.7802 92.4905
522 1 48.1498 43.8116 91.1541
523 2 51.8947 43.3327 88.053
524 1 52.8016 42.5288 92.2136
525 1 49.2635 44.3151 88.2576
526 3 50.1934 43.0457 92.5033
527 1 52.0111 46.1477 88.3091
528 1 49.3264 47.0488 89.9474
529 3 49.432 46.0138 92.4821
530 1 51.1425 44.9106 90.8324
531 5 53.7188 44.1038 89.9077
532 1 55.9142 42.8391 88.6388
533 1 55.704 43.6553 92.4203
534 4 54.8417 46.3086 88.6917
535 4 56.5246 45.2001 90.2537
536 1 53.7234 45.8934 92.1937
537 1 57.4601 46.8216 92.3604
538 1 62.4404 42.695 90.942
539 4 58.6843 43.8686 89.4553
540 1 59.8657 44.3965 92.2654
541 2 57.9826 42.5601 91.5416
542 1 58.718 46.9433 89.4992
543 1 61.2519 45.1436 89.6348
544 1 60.7349 47.2787 91.796
545 1 63.1541 43.0804 88.1174
546 2 63.9217 44.9443 89.7989
547 1 66.1722 43.702 89.169
548 1 65.0656 43.5358 91.9634
549 3 62.747 45.2413 91.975
550 1 65.4526 46.59 88.1694
551 1 65.5702 46.3709 91.3738
552 1 69.5088 43.2354 89.2577
553 1 72.369 43.6098 90.2094
554 3 67.8 43.0691 91.2711
555 1 70.1167 44.6645 91.9747
556 2 70.4683 45.7774 89.2162
557 2 67.9708 45.4185 90.4632
558 1 73.6721 45.4446 88.185
559 4 72.5973 46.4105 91.0202
560 5 75.0443 45.0002 90.6333
561 2 74.7436 42.6244 89.5328
562 3 74.4191 42.5562 91.992
563 2 76.5597 43.9782 92.3778
564 1 76.5885 46.8903 92.301
565 3 77.136 46.1224 89.5979
566 1 77.6262 43.4262 89.8382
567 1 79.0075 45.3519 91.717
568 1 48.1057 48.2751 92.5255
569 2 52.3379 47.6412 90.4485
570 2 50.9191 48.831 88.4561
571 1 52.8541 50.9048 89.8602
572 1 50.4613 49.6192 91.2104
573 2 51.9116 51.7472 92.3943
574 1 53.6189 48.8059 87.983
575 1 56.6482 48.4743 87.784
576 1 55.1754 48.1881 90.704
577 3 55.4991 50.4276 89.4211
578 3 57.0286 52.2417 90.4423
579 3 53.1084 49.3702 91.9558
580 1 55.1174 51.1189 92.0612
581 1 57.8506 49.6421 90.69
582 2 61.0503 47.5941 88.2516
583 1 59.3283 49.7702 88.091
584 2 59.3622 51.8865 89.9913
585 3 60.7057 49.3018 90.1989
586 1 60.1205 50.5691 92.4193
587 3 61.7507 51.878 90.3619
588 1 62.3387 50.2196 88.3302
589 1 63.1588 47.5295 89.8543
590 2 64.8993 49.3716 88.6735
591 1 64.43 51.8582 89.9558
592 1 67.1607 50.8488 89.7752
593 1 62.9828 49.7169 91.6529
594 3 65.4352 48.9482 90.9215
595 3 65.6963 50.9708 92.1522
596 1 67.544 47.9377 89.6344
597 4 63.2331 52.0828 92.6624
598 5 69.7422 48.646 88.1228
599 2 69.6354 50.2052 90.3824
600 4 72.2252 47.8946 88.8019
601 3 67.7602 49.3303 92.0715
602 1 70.0612 47.699 91.1319
603 1 68.3578 51.9165 92.4096
604 1 71.8807 50.8394 88.9918
605 2 71.1472 51.7938 91.5796
606 3 74.0662 49.3938 87.8747
607 1 72.4987 49.3241 91.5488
608 1 74.934 48.0085 90.0864
609 1 75.2853 49.6735 92.7727
610 2 74.346 50.8948 90.3668
611 4 57.8783 54.1833 88.5547
612 4 54.8086 53.0777 89.4392
613 4 55.531 54.1762 91.93
614 1 58.4018 54.5221 91.3263
615 1 60.7576 54.3172 89.6224
616 4 60.7268 53.2821 92.4476
617 2 61.1384 55.8003 92.7294
618 2 62.6739 53.0308 88.1468
619 2 66.6805 53.4262 90.4244
620 1 64.8656 54.564 88.7464
621 1 63.2585 54.4842 91.1462
622 3 65.7629 55.6972 91.3129
623 1 69.4079 52.9763 89.7378
624 1 68.3652 54.845 92.0319
625 2 52.9563 21.5054 93.7895
626 1 51.1771 22.5605 95.7983
627 1 55.4678 20.2598 95.3674
628 3 53.732 22.0711 96.2251
629 3 57.4164 20.91 97.1011
630 2 56.2154 22.7834 94.7009
631 3 56.5619 18.7365 97.8128
632 1 58.0382 18.5031 95.5199
633 5 59.8514 20.5485 96.0128
634 1 57.9476 20.9618 93.843
635 1 60.5224 19.286 93.5076
636 3 60.9468 18.1447 95.9726
637 2 62.3774 20.6914 94.9832
638 1 62.2362 19.8669 97.6314
639 3 61.1192 22.5765 96.7883
640 1 60.6185 22.6717 94.1395
641 4 63.5571 18.8098 93.5111
642 1 64.8609 19.482 96.0988
643 4 65.138 21.5387 94.0236
644 1 63.6813 22.589 96.2846
645 1 66.7598 22.1564 96.4134
646 1 67.8223 19.6905 95.183
647 1 68.1019 22.1347 93.3521
648 1 70.6045 20.7092 94.4717
649 1 69.9242 20.4598 97.4467
650 2 69.349 22.6843 95.984
651 2 72.8769 22.0082 93.3276
652 1 72.5847 22.042 96.2815
653 1 47.5403 26.3338 94.7839
654 2 47.8058 26.0387 97.6304
655 2 48.6509 23.702 94.9492
656 1 51.0451 24.1243 93.36
657 1 50.3531 27.0569 93.7114
658 2 52.4434 26.1495 95.1469
659 5 52.6036 24.5861 97.2717
660 5 50.1364 25.4296 96.131
661 1 53.8375 24.03 94.4005
662 1 56.8366 25.4513 94.6768
663 3 54.5942 26.6531 93.9812
664 1 55.5055 23.8395 97.0278
665 1 54.8475 26.7398 96.6574
666 3 59.5624 25.1103 94.9226
667 1 58.4344 23.1703 96.2116
668 3 59.1977 26.1179 92.8444
669 3 58.0178 25.88 97.0048
670 2 61.875 24.5751 95.6734
671 1 61.6627 26.5103 93.7386
672 1 60.6647 26.7577 96.7536
673 1 63.3768 23.9619 93.497
674 1 65.4973 24.8813 95.6443
675 3 64.4487 26.4873 93.4777
676 2 63.4153 26.563 95.8034
677 1 67.5204 27.0124 93.7044
678 3 65.7352 27.5176 95.5292
679 3 68.0137 24.3744 94.7515
680 1 70.8704 23.8705 94.1285
681 4 72.395 24.9045 96.4142
682 1 69.5942 26.1679 95.7057
683 1 70.4337 26.7963 92.9601
684 1 67.9339 24.7504 97.5733
685 1 74.2845 24.0677 94.4526
686 3 72.8645 26.2767 93.8863
687 3 74.5157 26.6555 95.8726
688 1 76.7557 25.8097 94.5162
689 1 75.6679 24.5798 97.2147
690 1 78.3393 25.9349 97.02
691 1 46.3627 29.0891 95.5148
692 1 45.5403 32.0931 94.8637
693 3 48.2285 30.5322 97.3728
694 3 48.3255 28.7601 93.7056
695 1 49.2233 28.2108 96.3277
696 3 50.6121 29.8228 94.057
697 1 48.4444 31.2382 94.8482
698 1 52.1677 27.8657 97.3262
699 1 50.9688 30.5229 96.5682
700 1 52.8932 28.7199 94.4202
701 2 52.516 31.5976 94.7258
702 2 55.8561 28.6011 94.8935
703 4 57.4517 29.8948 92.9984
704 4 57.3408 30.7413 95.7011
705 1 55.0271 31.1931 93.8719
706 3 55.4249 32.3856 96.4822
707 1 54.2429 30.049 96.7282
708 1 56.965 28.6968 97.6451
709 1 58.5233 27.8514 95.0135
710 4 59.6422 30.9142 94.4431
711 1 59.8068 29.6617 97.3528
712 2 61.1754 28.8534 95.0518
713 2 62.0104 30.778 93.4504
714 1 62.3877 30.9298 96.6137
715 1 63.796 29.0127 94.6618
716 1 66.8655 29.9868 94.5374
717 3 64.6997 31.604 95.2932
718 1 65.4794 29.6902 97.1509
719 2 67.7265 27.9261 96.8495
720 3 69.4764 28.7987 95.1416
721 1 72.2831 29.2027 93.398
722 1 72.0171 27.7821 95.966
723 2 68.9084 31.8139 94.4539
724 4 71.02 31.8125 92.9784
725 1 68.4942 30.6868 97.0221
726 1 71.2239 30.8358 95.7128
727 2 69.9587 28.526 97.7555
728 1 75.053 28.1703 93.6319
729 1 76.5593 28.4431 96.2686
730 1 73.9183 31.7949 93.5457
731 3 76.0762 31.1145 95.0256
732 4 74.0502 29.819 95.9645
733 2 75.6447 31.3389 97.5309
734 1 78.3114 27.7786 92.8322
735 5 80.6046 30.3785 95.3584
736 3 78.0457 29.7446 94.4715
737 3 79.2299 28.0424 95.656
738 1 78.2296 30.9416 96.8809
739 1 78.4516 32.3048 94.1429
740 1 47.1187 36.2751 92.8238
741 4 43.3648 36.0633 93.7951
742 4 45.7271 34.9968 95.1578
743 5 44.3617 33.5926 97.1942
744 1 47.3234 33.006 97.3082
745 1 43.7969 36.5796 96.6814
746 4 47.7194 36.9097 95.5706
747 4 48.3946 34.3622 94.8227
748 2 49.9218 36.1295 93.3786
749 1 50.6104 32.8123 93.3113
750 1 51.3264 34.9369 95.3471
751 3 49.9761 32.9311 96.3325
752 1 52.703 32.8838 97.2352
753 4 49.1095 35.3578 97.2995
754 1 54.0145 33.8713 94.6276
755 4 57.0054 33.3541 94.6302
756 5 55.713 35.9089 95.6463
757 4 57.7954 37.463 96.1418
758 4 57.5915 34.3563 96.9719
759 1 53.3575 36.0725 97.1912
760 1 53.4226 37.0799 94.224
761 4 57.9874 35.849 94.0647
762 4 59.7841 35.6627 96.0439
763 4 59.6001 32.7313 96.3433
764 4 59.7035 33.7343 93.5855
765 4 61.9372 33.1264 94.9245
766 1 62.4856 35.9339 95.3632
767 2 61.3308 34.5052 97.7095
768 1 64.5688 34.135 94.059
769 1 66.8906 33.079 95.8954
770 3 64.6535 37.1486 94.345
771 1 67.1374 35.6521 94.2456
772 1 63.9244 33.4729 97.1778
773 2 65.1093 35.7888 96.5409
774 1 69.5914 34.284 93.2795
775 2 71.9782 33.6785 94.3153
776 3 69.7298 36.0457 95.2752
777 1 71.6688 36.4629 93.381
778 1 70.1108 33.6573 96.2807
779 1 67.8595 35.6377 97.1572
780 3 72.1651 35.5759 95.963
781 2 70.3047 36.3066 97.8158
782 5 74.2608 34.8496 94.3415
783 3 76.1417 33.3396 93.372
784 5 76.7892 35.9387 94.7212
785 1 73.5296 32.7749 96.399
786 2 74.5024 35.3075 97.0411
787 1 76.5705 33.556 96.1325
788 4 76.1872 37.1585 97.408
789 1 81.3431 32.9308 93.9927
790 2 79.2614 34.6749 94.7741
791 1 79.4076 37.235 93.6745
792 3 81.0519 35.3179 92.8062
793 1 81.5798 35.7453 95.4408
794 1 80.4292 33.1088 96.9098
795 1 78.814 35.6696 97.1125
796 3 43.6334 38.7184 93.0351
797 1 43.6011 39.3889 95.7181
798 2 45.3906 37.6552 94.5463
799 1 44.1915 41.3265 93.384
800 1 46.2261 40.7681 95.3291
801 4 46.1024 38.4498 97.011
802 2 44.0576 42.0761 96.5089
803 1 48.1693 41.6452 93.4605
804 4 48.8013 38.6681 93.9471
805 4 49.2416 40.1341 96.1845
806 4 52.2944 39.7504 94.8638
807 4 48.7128 37.9069 97.8045
808 4 50.7847 37.7015 95.6919
809 4 52.1317 39.735 97.5897
810 1 50.9398 42.2937 94.8899
811 1 54.7924 38.7907 96.3348
812 1 56.1427 38.3307 93.5096
813 1 54.9271 41.219 94.2217
814 1 57.2883 40.4806 95.7917
815 2 57.5144 40.5946 92.8894
816 4 53.3449 41.8494 96.7102
817 4 59.1752 38.7683 94.1998
818 3 59.1439 39.2037 97.2577
819 5 60.0712 41.0029 95.8401
820 1 62.2683 38.9356 93.8221
821 1 60.2899 41.4635 93.1056
822 2 61.0077 38.0893 96.0906
823 4 66.5125 37.9882 95.9601
824 2 64.8857 39.7791 94.5527
825 5 66.6369 38.3427 93.224
826 3 63.7316 41.1922 92.9016
827 5 63.7135 38.404 96.5314
828 1 62.8683 41.1519 95.9995
829 1 65.6216 40.4598 97.3937
830 4 68.9414 38.259 94.493
831 1 71.3758 39.5646 93.3865
832 1 67.5815 40.5994 95.1585
833 5 69.2469 41.8919 93.1616
834 1 70.3874 41.1398 95.9116
835 1 68.7099 38.6239 97.7255
836 1 71.1963 38.1923 95.9609
837 1 74.1506 37.5962 95.2372
838 1 76.5005 38.2924 93.2212
839 1 74.2924 40.3484 93.6613
840 3 72.8364 42.1707 95.0534
841 1 76.2315 39.9125 95.9624
842 2 77.036 40.9204 93.6153
843 2 73.1758 40.0087 96.3071
844 1 74.5855 42.1248 97.2748
845 3 78.0491 37.9504 95.8061
846 2 81.7884 38.4054 94.346
847 1 79.3484 40.0554 94.8705
848 3 78.0081 42.2377 95.4967
849 1 80.5801 38.1316 96.9589
850 4 82.0782 40.532 96.0615
851 2 46.0568 43.5092 93.8346
852 1 46.0722 43.8461 96.6815
853 1 46.4786 46.5262 95.035
854 3 48.3969 42.5794 96.3098
855 1 48.5949 44.4375 94.3638
856 1 49.3248 47.3456 95.0715
857 3 51.4064 44.8895 93.5655
858 1 50.9541 45.0274 96.2102
859 4 48.3726 45.4346 97.2341
860 4 53.2009 44.4023 97.6569
861 4 53.2847 46.4797 95.2662
862 4 53.5466 43.8524 94.7085
863 4 55.7097 43.3108 96.3742
864 4 55.8722 45.5708 94.5312
865 4 55.2864 46.0509 97.331
866 4 57.6644 45.2783 96.5145
867 1 57.9093 43.0746 94.3452
868 5 58.2821 42.7831 97.5143
869 2 58.8968 45.8532 94.4329
870 1 60.3322 45.2785 97.3649
871 2 60.3403 43.5854 95.3145
872 2 61.0321 42.5671 97.6379
873 1 61.5417 45.9769 94.3877
874 1 62.5435 43.2737 93.8637
875 1 65.3103 42.552 95.0281
876 1 67.4918 44.1298 93.7025
877 1 63.2055 44.3411 96.6346
878 3 66.1401 44.8682 96.2587
879 3 65.4127 43.1085 97.8109
880 1 64.7339 45.5591 94.1583
881 2 66.3031 47.2838 95.755
882 1 70.6308 43.9287 94.8537
883 2 67.9502 43.0924 96.1212
884 3 69.9342 43.8389 97.4152
885 3 71.9851 42.5548 97.4183
886 1 68.0423 46.8739 93.063
887 1 71.1861 46.9196 94.0526
888 1 68.665 45.9571 95.9284
889 3 71.1616 45.9615 96.8147
890 1 73.3816 44.7111 93.1451
891 1 73.2722 44.6294 96.0989
892 1 75.4921 42.9386 94.5549
893 4 76.6702 44.0411 97.0696
894 1 75.5598 46.0936 94.9305
895 1 78.173 44.6655 94.4803
896 1 80.6519 42.8321 94.9071
897 1 79.4392 43.8857 97.4256
898 1 78.0539 46.7203 96.679
899 2 80.4826 45.7183 95.5875
900 3 78.6959 47.2746 94.0385
901 3 47.5799 49.3815 94.9428
902 1 47.335 48.2305 97.4122
903 1 51.4912 47.6155 93.1436
904 3 50.128 49.8858 93.9818
905 2 51.6524 48.3607 96.0198
906 1 49.6301 50.1427 96.6699
907 1 52.8562 50.1935 94.4288
908 3 52.4205 50.5787 96.9926
909 3 57.2482 49.6404 93.2208
910 1 54.9495 48.2932 93.6657
911 1 57.2414 48.0735 95.5654
912 5 55.909 50.9733 95.0156
913 1 54.4855 48.9055 96.7185
914 2 59.2414 48.3345 93.6651
915 1 60.2424 47.9938 96.1051
916 1 58.984 50.6564 95.3444
917 2 61.6831 49.0194 94.0236
918 2 61.5594 51.5499 94.646
919 1 62.3458 50.3919 96.9079
920 3 63.3079 47.4064 92.7922
921 1 63.4365 47.7715 95.675
922 1 65.5632 48.5847 93.5467
923 2 63.8286 50.3722 94.4512
924 2 64.4573 52.1005 96.0865
925 1 66.5916 51.1033 94.6555
926 1 65.3361 49.5495 96.9874
927 3 67.95 49.9702 96.9001
928 3 68.116 48.8076 94.8388
929 1 70.1841 49.814 93.4766
930 3 69.1517 51.485 95.3384
931 1 71.7354 51.1434 95.8956
932 1 70.249 48.5816 96.6152
933 2 73.9075 47.3869 93.1704
934 3 72.7507 49.2796 94.2372
935 3 76.6152 48.4946 94.7226
936 1 73.2192 51.7744 93.3559
937 1 74.7836 50.4039 95.7533
938 1 73.2302 47.7371 96.2994
939 2 75.709 48.1306 97.0219
940 3 73.8943 52.1837 97.6747
941 1 77.8153 49.6785 96.7925
942 1 51.1188 52.3431 95.3645
943 4 53.0292 54.4392 96.6211
944 1 57.7806 52.3398 93.1239
945 2 57.3693 52.6728 96.7158
946 4 54.5594 52.3353 96.8953
947 1 53.7994 53.0024 94.079
948 1 56.3387 54.2831 94.8818
949 2 55.8746 54.7794 97.6903
950 4 59.7465 52.6885 97.562
951 2 58.7102 55.5094 93.8739
952 4 59.9367 53.502 95.012
953 1 58.509 55.3741 96.6745
954 1 61.3333 56.0996 95.7394
955 1 62.4077 53.5534 97.1142
956 1 65.6704 53.5219 92.9311
957 1 63.8509 56.5429 93.2474
958 2 64.2448 56.1964 95.9915
959 1 63.0317 54.0627 94.4052
960 2 65.5794 54.1383 95.5036
961 1 67.1895 52.5581 97.1441
962 1 66.6228 56.1776 94.0406
963 1 67.6481 55.551 96.7553
964 2 67.9668 53.6753 94.6099
965 4 70.6357 53.4408 93.6385
966 1 70.1252 53.7964 96.4834
967 2 72.9259 53.5211 95.7682
968 2 52.3913 21.4079 100.665
969 3 52.3463 22.2378 98.3218
970 1 57.5203 20.3285 99.9327
971 1 54.9047 20.8973 98.3384
972 1 55.0442 20.856 101.51
973 1 59.393 18.7426 98.2943
974 2 59.5584 21.5644 98.3949
975 5 60.7873 20.5285 100.436
976 1 61.8547 17.9054 99.9486
977 1 62.3966 22.4067 99.0875
978 1 62.1837 19.1125 102.717
979 4 59.1861 22.6467 100.782
980 1 59.3097 18.6424 101.775
981 1 64.7193 18.402 99.0256
982 3 64.7081 21.0982 98.2069
983 1 67.1855 19.8812 98.3798
984 2 63.3707 20.2474 100.292
985 1 63.249 21.9401 102.357
986 1 65.7408 21.7553 100.476
987 1 65.1802 19.2469 102.022
988 2 72.1914 21.0608 99.1067
989 1 67.9741 19.8701 101.307
990 2 69.7891 21.4035 100.182
991 2 67.939 22.4645 98.9973
992 1 68.1918 22.7552 102.208
993 1 47.9469 27.4994 100.63
994 1 45.9402 27.2521 102.865
995 1 47.8638 25.0125 102.666
996 3 48.255 24.8875 99.9964
997 1 49.6788 23.4203 98.1914
998 1 51.5527 24.1118 100.346
999 1 50.2612 26.3413 98.9053
1000 3 49.3511 23.0538 101.266
1001 2 50.091 26.154 101.635
1002 1 52.7172 26.2262 102.25
1003 1 54.4407 23.4271 99.8029
1004 4 57.3076 23.1274 99.0364
1005 1 56.46 23.4954 102.059
1006 5 53.5047 26.0738 99.3501
1007 3 55.255 25.7764 101.336
1008 4 56.4585 25.9159 99.058
1009 1 53.3459 23.1924 102.606