# LAMMPS data file written by OVITO Pro 3.7.7
1742 atoms
5 atom types
0.0 250.0 xlo xhi
0.0 90.51 ylo yhi
0.0 181.02 zlo zhi

Atoms  # atomic

1 5 16.3476 43.9417 78.3848
2 1 18.977 45.0395 77.8404
3 2 21.5554 44.1006 78.4909
4 1 12.3731 48.4583 78.5033
5 1 14.5921 46.2128 78.157
6 1 15.3915 49.1029 77.6524
7 2 17.0902 46.8915 76.848
8 1 17.6051 49.2032 75.3896
9 2 18.2405 49.2362 78.0447
10 3 20.7268 49.5012 78.386
11 1 19.9659 47.6478 76.4683
12 1 22.7574 46.5416 77.4884
13 1 22.6318 49.3373 76.2817
14 1 25.2178 49.1939 77.7389
15 5 25.1928 47.9654 75.1858
16 2 25.4122 45.8144 76.7982
17 5 29.7751 49.2714 77.0511
18 1 27.5982 47.4016 77.3274
19 4 32.3268 48.329 77.1852
20 4 11.6519 51.6876 77.8951
21 4 15.1583 50.5994 75.0878
22 4 15.7522 53.3222 74.6777
23 4 15.8905 54.6217 77.0546
24 4 14.2858 52.0415 77.2093
25 5 18.3026 51.8588 74.0871
26 1 20.8763 53.5532 74.3696
27 1 20.0459 50.8107 76.137
28 2 20.2412 53.2494 77.0918
29 3 21.7481 50.8757 73.9706
30 1 18.2997 54.4404 75.5162
31 1 17.2777 51.8133 76.9407
32 1 24.2063 53.7305 74.301
33 3 22.5828 52.0829 75.8784
34 1 22.2525 51.675 78.4424
35 1 22.5998 54.6452 76.5299
36 1 24.5751 50.7563 74.4154
37 1 25.0154 52.0723 77.0238
38 1 27.2888 50.2622 75.8369
39 2 26.8325 52.9998 74.8971
40 4 27.8651 52.9571 77.3541
41 2 29.6895 51.5171 78.3846
42 1 29.7646 51.9373 75.5625
43 1 30.8166 54.0544 77.427
44 1 32.1907 51.2359 77.2384
45 2 33.5643 53.606 78.0536
46 4 11.1728 54.7532 77.9342
47 4 10.219 57.5954 77.6266
48 4 14.9833 57.1373 76.1201
49 4 13.3477 54.9172 76.1135
50 2 15.5603 58.6695 78.4861
51 1 13.0123 57.378 78.4252
52 4 17.2555 56.8273 74.0714
53 3 19.9049 56.5142 74.6719
54 1 17.9868 57.2951 76.8021
55 2 19.9133 59.2465 77.9075
56 1 19.4412 59.3123 75.1718
57 2 20.2594 55.7512 76.9728
58 1 21.772 57.8674 76.2334
59 1 25.731 54.9065 77.0017
60 4 22.4715 56.1964 73.8499
61 2 24.2715 56.8214 75.6836
62 1 23.4355 56.5807 78.4831
63 1 24.6778 58.9736 77.2481
64 1 26.2894 55.9642 74.1629
65 1 26.1972 59.0983 74.6912
66 1 28.7871 55.0763 75.5266
67 1 27.2369 57.3519 76.7351
68 3 28.2147 55.3858 78.33
69 1 29.4684 59.1432 76.1334
70 2 30.0835 56.7556 77.427
71 1 32.9239 56.301 77.9925
72 4 31.8639 57.6539 75.7386
73 4 33.9345 59.1467 77.4558
74 2 11.2906 60.1583 78.0273
75 1 13.7934 59.9028 76.8329
76 1 12.8748 62.5699 78.1314
77 1 15.6847 62.318 76.3133
78 1 16.4096 59.5419 75.2496
79 1 17.5651 60.4129 77.7253
80 2 18.6724 61.9248 75.7056
81 1 20.7582 63.9792 76.3987
82 1 21.5566 61.0593 76.6569
83 3 19.5016 62.2541 78.115
84 2 23.4262 59.8314 74.9653
85 3 23.3221 63.2052 76.7736
86 1 25.5107 61.7576 76.186
87 3 27.2506 60.0172 77.1542
88 3 27.6949 63.2954 77.3049
89 1 29.3192 61.2638 78.4138
90 2 29.8931 64.0554 78.4063
91 2 31.6176 60.7133 76.7378
92 1 15.1609 64.5641 78.3038
93 1 17.8998 64.2824 77.0061
94 1 20.3951 66.441 78.173
95 5 23.0981 65.866 77.3001
96 1 25.3517 64.2422 78.3421
97 1 16.125 40.0076 83.1934
98 3 18.5212 40.0111 81.8926
99 1 26.6382 39.9352 82.4597
100 1 23.5845 40.3046 81.6294
101 1 11.6329 43.7775 81.9787
102 1 13.8408 41.5866 82.1377
103 1 14.6283 44.2931 80.7497
104 2 16.4952 41.7203 80.6626
105 1 16.3831 43.0265 83.0163
106 1 20.7746 41.1821 80.8337
107 1 18.7308 42.3783 79.1482
108 2 17.5135 44.4241 80.7268
109 2 18.7574 42.5161 81.9799
110 1 20.1924 44.3961 80.7732
111 5 24.2809 44.1067 78.5774
112 1 25.5011 41.8109 79.9537
113 5 22.7622 41.6451 78.8048
114 1 22.9514 43.2732 81.2612
115 2 25.4509 42.3216 82.9239
116 5 25.4716 44.5062 81.1902
117 3 29.2747 40.598 82.307
118 1 27.4677 44.7888 78.9868
119 1 27.8785 42.7161 81.3144
120 4 29.3526 45.1988 81.3128
121 1 30.8559 42.6966 81.8596
122 1 12.1623 46.0098 80.1413
123 3 10.1879 47.7445 80.2563
124 1 9.04348 45.342 81.1175
125 3 12.2382 48.6142 81.4111
126 1 8.16601 48.5129 81.7833
127 1 10.5102 46.8391 82.9903
128 1 14.7441 49.2846 82.4236
129 2 14.5544 47.6299 80.3754
130 4 16.5545 49.898 80.0894
131 1 16.3391 46.2707 82.2804
132 1 13.4807 46.4699 82.8425
133 1 20.4103 47.0312 79.3992
134 1 17.2717 46.9895 79.5564
135 4 19.1965 49.2574 80.5711
136 3 19.0476 46.6072 81.8062
137 1 17.6696 48.7602 82.8189
138 1 21.4498 47.9809 82.0902
139 2 21.446 45.3801 82.8387
140 1 22.9973 48.8082 79.6322
141 2 22.7227 45.8586 80.3533
142 1 24.2948 46.9837 82.3357
143 1 25.2438 46.7716 79.3866
144 5 26.0307 49.3089 80.746
145 4 27.2222 46.8198 81.4781
146 4 28.4942 48.6439 79.7484
147 1 30.2668 46.6077 78.8346
148 4 30.7796 47.5931 81.6804
149 1 31.2242 49.5745 79.687
150 4 28.6144 49.0966 82.6394
151 1 32.3089 45.278 81.1093
152 2 34.8356 46.2052 81.9165
153 2 32.9973 47.2824 79.422
154 1 33.6412 48.7939 81.5517
155 1 7.7331 51.5717 81.3012
156 4 5.53787 52.4117 83.2869
157 4 9.19447 52.8303 78.9849
158 2 9.51991 53.5609 81.4952
159 1 10.4825 50.4288 80.3105
160 1 11.97 53.0165 80.769
161 1 9.95373 50.489 83.1894
162 1 13.6465 50.6265 79.8708
163 4 13.643 54.2814 78.7259
164 4 16.0589 52.7352 79.4058
165 2 12.6126 51.0611 82.5552
166 4 15.1729 51.9866 81.8481
167 1 14.4108 54.6362 81.4154
168 3 20.1537 50.1176 83.1388
169 1 19.225 51.8305 79.2223
170 1 21.3539 54.4175 79.3744
171 2 17.6959 53.9636 81.1147
172 5 17.9329 51.4724 81.9226
173 1 20.2822 52.9863 81.8747
174 2 21.3446 50.6993 80.8952
175 1 23.608 50.0182 82.3251
176 2 23.978 53.8813 78.8372
177 2 24.6842 51.2129 79.6187
178 1 23.2386 52.8278 81.2333
179 4 25.8718 51.8185 82.1815
180 1 26.4839 53.3923 79.7592
181 2 27.2445 50.7421 78.6445
182 1 28.7007 51.3275 80.9632
183 4 27.7373 53.5023 82.7344
184 2 29.2321 53.6158 79.763
185 1 30.7071 53.5565 82.3848
186 5 31.1878 50.6609 82.5309
187 3 33.7469 50.6361 79.5099
188 2 35.9182 50.1893 82.6376
189 1 31.7957 52.5467 79.8962
190 2 35.2428 52.7298 79.7965
191 1 33.8019 51.983 82.0479
192 1 36.7208 52.8928 82.1585
193 1 7.00427 54.7686 81.8155
194 1 7.73458 58.0147 81.1459
195 1 9.08918 55.7016 79.6706
196 1 9.67192 56.0762 82.5138
197 1 10.8518 58.1303 80.5082
198 2 11.8918 55.6992 80.4953
199 3 12.2211 55.1466 82.9082
200 3 9.60986 58.8701 82.841
201 4 15.6933 56.1936 79.1749
202 1 13.8928 57.7123 81.386
203 1 16.736 56.4204 81.8346
204 1 18.3433 54.7873 78.6325
205 1 18.1566 57.9623 79.617
206 2 20.698 57.0994 78.8819
207 1 19.6583 55.973 81.1885
208 3 18.5114 58.2605 82.3759
209 1 20.816 58.9256 80.9951
210 2 21.9786 54.9527 82.5156
211 2 22.2871 59.0854 78.5887
212 2 26.2639 59.3736 79.3265
213 2 26.1169 56.7835 79.1598
214 1 24.7052 55.5278 81.0649
215 3 22.2365 56.6695 80.9017
216 1 23.9699 58.6738 80.5776
217 5 26.6488 58.3708 81.7534
218 1 28.5993 58.2339 79.2075
219 1 27.9881 55.8105 81.0008
220 1 30.0081 58.0198 81.9017
221 1 30.7844 55.7647 79.96
222 1 31.3883 58.8896 78.7761
223 1 33.722 54.8513 80.707
224 1 35.2078 57.2779 79.5362
225 2 32.6974 57.5574 80.7336
226 4 32.0519 56.1105 82.7777
227 1 32.5482 59.2076 83.1498
228 1 34.8601 57.5002 82.5179
229 2 36.4236 55.5486 81.418
230 2 36.4458 59.3061 81.1012
231 1 8.87809 59.9104 79.1883
232 1 10.2069 62.6925 79.4936
233 2 8.06578 61.3507 81.3339
234 3 10.4855 60.6823 81.1489
235 1 12.1377 62.7672 81.7018
236 2 9.03833 63.5602 82.0083
237 5 12.0632 59.5815 82.8269
238 2 15.2062 61.2874 78.7271
239 1 16.338 59.9666 80.8009
240 2 14.6339 62.8121 80.608
241 1 13.084 60.2553 80.0201
242 1 14.4304 61.0982 82.6723
243 1 16.9357 62.9009 82.5735
244 2 18.882 60.5739 80.0372
245 2 18.4371 60.6615 82.4926
246 1 17.2441 62.8255 79.6387
247 1 19.916 62.6753 81.3258
248 3 21.1511 61.0506 79.3467
249 1 21.8606 63.5813 79.1211
250 1 23.8681 61.3648 78.717
251 3 26.5179 61.7063 78.7163
252 1 22.631 61.3897 81.5102
253 2 24.2979 63.3452 80.623
254 1 25.7001 61.2417 81.2161
255 3 26.6173 63.2146 82.774
256 2 24.4688 59.662 82.9851
257 1 27.7311 63.3809 80.2857
258 3 28.9745 62.7374 82.9583
259 1 28.5829 60.6079 81.2217
260 1 30.6212 63.1127 80.8834
261 2 31.2492 60.4196 81.0941
262 3 32.0328 61.6841 79.0403
263 1 33.8552 59.9396 80.2882
264 3 33.2994 62.4216 81.1508
265 1 34.967 61.0847 82.8569
266 1 10.6373 65.4459 80.9768
267 1 11.3069 67.4843 83.0099
268 2 12.9301 64.675 79.8861
269 1 15.371 65.3322 81.2119
270 3 13.0175 65.4604 82.3892
271 4 13.384 67.3897 80.6285
272 1 16.8915 68.0135 81.6155
273 3 19.3005 64.39 79.307
274 1 17.4878 66.4708 79.0866
275 2 18.0397 65.2168 81.3537
276 2 19.0723 67.1811 83.0203
277 3 19.4531 68.0292 80.4477
278 1 20.6905 65.8037 81.13
279 1 21.6512 68.3464 82.4499
280 1 25.1298 67.2847 79.1064
281 5 22.2921 68.1067 79.6208
282 1 22.9224 64.6377 82.4674
283 2 23.2259 65.6232 79.9363
284 3 23.9418 67.2436 81.6356
285 1 25.7641 65.4086 81.401
286 2 26.6326 68.0785 81.2844
287 1 27.8674 66.032 79.0449
288 3 29.1436 67.9574 80.5451
289 1 28.612 65.7797 82.0459
290 3 30.5598 65.7727 80.2316
291 1 31.1859 67.4193 82.4343
292 1 32.8095 65.0025 81.7066
293 2 16.2862 70.3025 83.2296
294 1 19.0513 69.9151 82.4735
295 1 24.5801 69.488 82.8876
296 1 28.7146 69.1036 83.0161
297 3 13.572 39.7953 84.3745
298 1 14.1681 39.0323 86.9215
299 2 16.4458 40.0297 85.8502
300 1 21.0128 39.4846 83.3153
301 1 18.71 38.4621 85.3869
302 4 21.0048 40.5097 86.0829
303 1 21.8099 37.7479 85.6886
304 1 24.2418 38.3349 83.7698
305 4 24.4321 36.1546 85.8943
306 4 24.5144 38.8149 86.5934
307 2 26.7153 37.8672 85.1819
308 1 29.1994 39.6093 84.7647
309 1 28.499 38.3096 87.2849
310 1 31.1158 40.3632 87.2413
311 1 9.34376 43.9813 84.0103
312 1 10.8039 43.8735 86.7376
313 1 7.7989 43.7899 87.1741
314 2 11.9226 44.9032 84.4816
315 1 11.9693 42.0679 84.5129
316 1 12.4093 41.333 87.4161
317 2 13.9493 43.9091 83.5736
318 2 15.1428 41.4866 87.4262
319 1 13.8453 43.8373 86.4542
320 2 14.7672 41.8194 84.9277
321 1 16.9556 42.9433 86.1112
322 1 18.4955 40.8062 87.4193
323 1 18.5884 41.2436 84.3245
324 1 18.7775 44.6998 83.7567
325 1 21.116 42.7237 83.6552
326 2 19.7444 43.0202 86.1998
327 3 21.0911 44.9971 85.4515
328 3 24.7797 41.566 87.3848
329 1 23.7553 44.322 83.9927
330 1 26.3475 40.5969 85.2973
331 1 23.5332 41.1343 84.5827
332 1 22.5059 42.8927 86.7608
333 4 25.8052 43.4561 85.8774
334 4 26.8163 44.659 83.4856
335 1 28.3616 41.4692 87.2254
336 1 28.53 42.5262 84.2331
337 2 31.1915 41.5833 84.3958
338 1 30.5796 43.3747 86.4236
339 4 30.6589 44.7822 83.824
340 4 28.1425 45.2076 85.9494
341 1 33.3084 43.57 83.366
342 1 35.5535 45.131 84.4478
343 2 32.9133 44.7175 85.8254
344 1 33.4726 42.0339 85.9563
345 1 35.2905 44.1557 87.2307
346 3 6.37022 46.1209 86.3772
347 3 6.53349 48.3369 85.1454
348 1 7.40535 46.3024 83.6009
349 1 5.27432 48.2466 87.8115
350 2 8.73914 45.8597 85.8205
351 2 8.99268 48.3602 84.5904
352 1 8.20554 48.1056 87.2334
353 2 10.5089 49.3537 86.3665
354 1 11.043 46.8587 86.0411
355 1 12.2616 48.8804 84.1823
356 1 15.8288 45.3311 84.9264
357 2 13.5572 46.4694 85.6979
358 1 13.282 48.9785 86.9932
359 2 15.0207 48.1169 84.7144
360 1 15.6607 46.868 87.5035
361 1 16.0985 49.7299 86.6487
362 1 18.4754 45.5537 86.6693
363 2 17.3073 47.4976 85.1855
364 1 19.8726 47.4442 84.4312
365 3 18.3262 49.76 85.1417
366 1 18.5283 48.4662 87.5218
367 1 21.3144 47.3742 86.9389
368 4 26.1285 49.1824 83.6059
369 1 23.5756 45.5822 86.8039
370 1 23.3702 49.0532 85.1669
371 1 25.6266 46.8082 85.0551
372 3 22.6047 46.7267 84.4845
373 4 26.1452 46.2911 87.8422
374 4 26.0382 49.4512 86.5219
375 4 28.6385 46.6256 83.7597
376 4 28.504 48.4625 85.7996
377 4 30.7717 48.381 84.1804
378 4 30.6548 46.4045 86.0002
379 3 34.4128 46.7545 86.1158
380 1 33.5155 49.7835 84.2839
381 2 35.5889 47.9277 84.0048
382 1 32.9836 46.701 83.8541
383 3 32.5601 48.3998 86.3188
384 1 35.3617 49.1714 86.5448
385 1 32.668 46.2278 88.0491
386 2 37.1442 46.9559 86.0994
387 1 37.6558 49.8177 84.8871
388 2 38.0348 49.2084 87.5456
389 3 7.12173 50.2229 83.5913
390 1 5.35047 50.5995 85.833
391 1 6.34211 53.5058 85.986
392 3 7.56112 52.4933 88.0372
393 1 8.43411 52.9672 83.9412
394 2 11.064 53.0772 83.3923
395 1 8.24988 50.8008 85.8945
396 3 9.5942 53.0295 86.6645
397 1 11.4811 51.5742 85.5883
398 1 12.0623 54.4652 86.2742
399 3 14.1263 50.619 84.8925
400 1 13.705 53.1276 84.1095
401 2 16.3769 50.884 83.9768
402 1 16.566 53.8156 83.5915
403 1 13.8543 52.077 87.1984
404 2 15.1292 54.5855 85.9842
405 5 16.4093 52.3759 86.0188
406 4 20.7334 50.038 85.8316
407 1 19.0446 52.1956 84.5189
408 1 21.1298 54.5383 85.0238
409 1 18.4556 54.2606 86.5291
410 2 18.578 51.3422 87.1901
411 2 20.8593 52.5052 86.8915
412 1 22.1256 51.8831 84.1136
413 1 24.2081 54.1307 83.8056
414 4 25.054 51.5594 84.8821
415 4 23.2681 51.1117 87.3061
416 1 23.5048 53.9219 86.7116
417 4 25.8348 52.232 87.4505
418 1 30.925 50.6266 85.752
419 4 26.7518 53.9086 85.439
420 4 29.4519 53.1278 85.0808
421 4 27.9628 51.0564 84.5326
422 1 31.1697 53.276 87.3909
423 1 28.6357 51.0109 87.6072
424 1 28.383 54.0573 87.827
425 1 35.518 51.9766 84.7865
426 2 32.6329 52.4501 84.4846
427 2 34.0704 54.0847 86.2667
428 1 33.5191 51.5793 87.0693
429 1 34.697 54.6136 83.628
430 1 38.5034 52.6218 84.5572
431 1 36.5365 51.7025 87.6226
432 3 39.1053 51.5749 87.0462
433 1 36.8066 54.4096 86.2563
434 1 39.8202 54.1902 86.7261
435 5 6.10385 57.3352 83.4638
436 1 4.21694 55.1778 87.2693
437 3 6.24666 56.4182 86.0647
438 2 4.98472 55.02 84.1845
439 4 3.95846 57.5224 85.4316
440 1 6.29963 59.1794 86.1762
441 3 7.61436 55.3966 84.3217
442 3 10.0484 54.9351 84.7951
443 1 11.6272 57.2074 84.4558
444 1 8.55737 55.337 86.93
445 1 8.66659 57.7006 85.085
446 2 10.7889 56.8619 87.0656
447 3 12.0491 59.1223 87.1175
448 1 9.23152 59.1387 87.6881
449 1 14.4619 56.3091 84.0473
450 5 16.0053 58.7719 83.3929
451 1 13.556 56.883 86.8518
452 1 16.3528 56.0932 87.8234
453 2 16.0136 58.3321 86.0834
454 2 19.0145 54.8246 83.4691
455 3 21.0102 54.9847 87.6911
456 1 17.4332 56.4811 84.8239
457 1 18.3974 59.2815 84.902
458 1 20.5605 57.223 83.7435
459 2 19.6878 56.6718 86.2718
460 2 20.9472 58.7858 86.0536
461 1 18.222 58.3933 87.8779
462 1 23.5112 57.1875 83.4019
463 1 26.415 56.119 83.4894
464 2 25.8304 58.3677 84.8023
465 5 22.5429 56.7375 86.179
466 1 24.8604 57.9055 87.5577
467 3 24.9799 55.9913 85.7195
468 3 28.2151 58.1907 83.8779
469 5 29.2382 55.6953 83.8646
470 1 27.5913 56.8058 86.2828
471 2 30.1614 55.8239 86.845
472 1 30.6627 57.8257 85.1145
473 4 31.7321 54.7512 85.0237
474 1 33.4814 56.937 85.2485
475 1 33.4216 58.6252 87.6663
476 3 35.1878 56.2827 87.1618
477 3 36.0614 56.682 84.8707
478 2 34.5089 59.4321 85.0426
479 1 32.7421 55.7162 88.0533
480 1 37.0897 58.9133 83.8219
481 1 36.3387 58.6477 86.7889
482 3 37.5449 55.111 83.7258
483 1 38.6147 56.8572 85.7857
484 1 7.26105 60.0121 83.4992
485 1 7.29821 62.9305 84.2054
486 4 5.43259 61.7199 87.1785
487 1 9.88616 61.5704 83.6378
488 2 12.398 61.8984 84.4714
489 3 10.6147 59.5301 85.1448
490 2 8.38094 61.0014 85.8828
491 1 9.31129 63.9172 86.1359
492 1 10.9742 61.5054 86.8162
493 2 12.1574 63.9287 86.2857
494 1 13.7244 59.467 85.1397
495 1 14.3596 63.7775 83.9679
496 2 16.2668 61.2113 84.6227
497 1 14.0815 62.0029 86.7008
498 1 16.828 60.9544 87.1684
499 1 17.2187 63.6722 85.8324
500 2 18.9693 61.9723 84.5563
501 1 21.0215 60.1993 83.6719
502 2 21.373 62.8552 83.6689
503 1 19.7493 60.9022 86.9538
504 1 20.2715 63.8596 86.3041
505 2 21.9415 61.7357 85.7586
506 1 23.4697 59.5348 85.4027
507 1 24.2271 62.1897 83.9103
508 1 24.1552 62.1943 87.0645
509 2 25.9455 60.1923 86.519
510 4 26.4539 62.7316 85.6729
511 1 28.5728 59.6149 86.2025
512 1 27.0479 60.6738 83.8459
513 2 29.8584 60.2604 83.7072
514 1 29.4159 62.4174 85.608
515 1 31.8987 62.0487 83.4084
516 1 31.736 60.4374 86.0878
517 3 33.8866 61.7716 85.2702
518 4 32.1506 63.3827 86.2646
519 1 34.8503 61.3366 87.7622
520 2 34.0759 63.7791 83.7855
521 1 34.9577 64.1161 86.4138
522 3 38.6379 59.8682 85.7828
523 1 36.5643 61.617 85.3633
524 2 37.6824 61.3415 87.9323
525 4 6.57901 64.2824 86.9754
526 4 8.48331 65.7775 83.6694
527 1 11.0237 64.4318 83.8449
528 3 12.4945 68.9095 85.0939
529 1 10.2587 66.9665 85.8447
530 1 11.9156 65.9878 88.0066
531 1 14.4741 67.9141 83.4254
532 1 16.6184 65.9321 83.8819
533 4 12.9204 66.2151 84.9996
534 1 14.6969 65.0813 86.6961
535 2 13.7625 67.6892 86.9361
536 2 16.2246 67.2195 86.2071
537 1 19.2881 64.5078 83.585
538 3 17.5194 68.5451 84.4942
539 2 21.1235 66.2644 84.2672
540 1 18.8734 66.4876 85.9892
541 1 21.9336 67.0934 86.8571
542 3 25.2127 64.7585 83.9728
543 1 23.6911 66.9303 84.3062
544 1 26.5462 67.2787 83.903
545 4 22.853 64.3678 85.3667
546 1 25.3425 65.3507 86.6161
547 3 25.0775 68.2347 86.1471
548 1 27.8344 64.8226 84.6998
549 3 29.4545 67.1551 84.6507
550 2 30.5237 67.7279 87.0452
551 5 29.9871 65.3341 86.4497
552 1 27.6345 67.3208 86.8514
553 1 30.7691 64.7033 83.7704
554 3 27.753 64.5096 87.5599
555 1 32.9116 66.2697 85.101
556 3 33.067 68.192 87.1848
557 1 32.3181 65.6659 88.0001
558 1 11.614 69.1389 87.6484
559 1 15.2127 69.7055 85.7354
560 2 16.457 71.6526 87.2052
561 1 20.2311 68.9435 85.0581
562 2 21.6769 70.9395 83.4759
563 1 18.0027 69.2947 87.2234
564 3 20.6923 69.6315 87.6258
565 1 18.3951 71.2853 85.0802
566 1 21.4882 71.7131 86.1152
567 3 22.8348 69.2543 85.0513
568 1 24.4214 71.3726 85.2201
569 1 23.3725 69.7896 87.5803
570 2 26.5747 69.7987 84.8382
571 1 26.35 70.204 87.6629
572 1 24.1901 72.611 87.9292
573 1 28.9908 69.87 85.9951
574 1 31.585 68.9786 84.932
575 1 31.4479 70.3526 87.7747
576 2 11.7568 39.1941 89.0391
577 1 14.1449 37.6396 89.5749
578 3 14.1552 40.3344 89.4573
579 1 16.7825 38.632 88.4521
580 1 12.8346 39.1651 91.7092
581 2 16.2919 36.5267 90.911
582 1 16.0249 39.306 91.3149
583 3 14.5668 37.3635 92.6157
584 1 19.9988 38.264 88.2482
585 2 18.7984 40.2186 90.1039
586 1 18.7232 37.6794 91.0617
587 4 21.0943 36.1245 90.585
588 4 21.4865 39.0965 90.7096
589 1 19.0538 40.1131 92.7731
590 4 22.7474 39.8004 88.1239
591 1 26.314 39.7823 88.6264
592 1 22.8602 36.928 88.419
593 1 24.4892 38.5147 90.5277
594 1 25.9254 36.8217 88.3648
595 2 24.0825 35.8074 90.6321
596 4 26.5788 36.3864 91.5354
597 1 22.7713 37.3702 92.6774
598 2 28.9689 40.1418 89.6113
599 2 28.0415 37.7344 89.9033
600 1 29.9708 38.4024 91.8319
601 1 27.2051 39.5092 91.7505
602 3 30.5307 38.2237 89.062
603 1 31.714 40.3479 90.2377
604 5 34.2908 40.3511 91.7392
605 1 7.11677 44.056 92.1296
606 1 9.59852 41.7547 88.4989
607 2 11.2749 43.9743 89.4737
608 3 8.57238 43.879 89.8578
609 2 8.74448 41.6446 91.152
610 1 11.7214 41.5593 90.5378
611 1 10.2921 43.8036 91.9872
612 1 16.5968 41.6922 89.568
613 1 13.9511 43.19 89.3902
614 3 16.101 44.2859 88.2349
615 2 14.3943 41.6482 91.6498
616 1 13.3842 44.7834 91.8871
617 1 16.2612 44.0052 91.371
618 2 16.877 41.5845 92.3216
619 3 18.4074 43.317 88.4997
620 1 20.8516 41.6649 89.0279
621 1 20.6614 44.6657 88.3815
622 1 19.1691 43.0199 91.141
623 2 21.4189 41.3812 91.8283
624 4 24.6406 43.8244 88.8452
625 1 22.2864 43.7358 90.7108
626 5 23.9483 41.4036 90.0916
627 1 25.0469 43.7607 91.9381
628 1 27.0292 42.1409 90.26
629 4 27.3884 43.9271 88.1145
630 3 29.6631 41.2771 91.8147
631 4 29.2703 44.0254 91.8153
632 4 27.3061 45.2095 90.54
633 5 29.9157 42.675 89.4836
634 2 33.7989 40.5505 88.3943
635 1 32.5722 43.0895 88.6184
636 3 34.274 44.8277 89.5954
637 2 34.325 44.9231 91.9614
638 1 32.5618 42.74 91.7732
639 1 35.2244 42.4001 89.8827
640 1 35.8396 42.8832 92.7442
641 1 36.7487 44.9809 90.6232
642 1 6.68665 45.8604 89.1286
643 1 5.28421 49.6716 90.5325
644 1 6.0582 46.9288 91.8572
645 2 7.38203 49.3619 92.2593
646 2 7.73957 48.4082 89.8623
647 1 9.62939 45.9189 88.5874
648 4 11.0797 48.283 88.7226
649 1 8.94553 46.4 91.3988
650 2 11.6554 46.7144 90.9132
651 1 10.0516 49.2003 91.0897
652 3 15.0086 45.838 89.9192
653 1 12.8169 45.9131 88.3849
654 1 13.9199 48.3219 89.9013
655 1 16.2955 47.1263 91.9016
656 2 16.6757 48.336 89.5372
657 1 17.9404 45.8061 89.6414
658 2 18.4667 45.5587 92.3632
659 2 20.1189 47.3102 89.2474
660 1 19.0373 48.2955 91.5241
661 3 20.5226 45.7471 91.047
662 1 23.8069 48.3562 88.2629
663 3 22.5451 46.1387 89.3043
664 4 24.8596 46.288 90.2234
665 3 22.9156 45.975 91.9515
666 4 24.7416 48.8347 91.2555
667 1 22.021 48.2118 90.8498
668 4 27.7603 48.1511 88.4341
669 4 29.7134 45.4336 88.5153
670 4 27.1018 48.0686 91.0166
671 4 29.5127 47.084 90.6935
672 1 30.5283 48.4209 88.1845
673 1 31.8194 45.4038 90.7541
674 1 33.4061 49.1185 88.7941
675 3 31.8436 48.2248 90.7147
676 5 34.2497 49.6071 91.6234
677 2 34.0925 47.1059 90.4762
678 1 35.7424 46.854 88.432
679 1 36.3652 49.5453 89.6984
680 1 38.4264 47.2657 89.4474
681 3 38.4924 48.9459 91.4539
682 3 38.5204 46.4132 92.1433
683 4 36.1993 47.643 91.8234
684 3 6.91353 50.224 88.2673
685 2 3.06031 53.7638 89.6002
686 3 6.43528 54.6238 88.6051
687 1 4.89162 52.0405 88.3758
688 1 5.69379 53.4193 90.8401
689 4 3.32419 51.6169 91.3842
690 1 3.39156 54.3635 92.5615
691 2 12.3694 50.5581 89.0967
692 1 8.96707 54.0496 89.5526
693 1 9.69968 50.8388 88.4669
694 3 11.4573 52.8283 88.3468
695 1 7.77907 51.3756 90.5918
696 1 10.8202 52.3924 91.0302
697 2 12.4686 54.4625 92.0932
698 2 8.1597 53.5265 92.2614
699 1 15.7942 50.2411 91.6534
700 1 12.7695 50.3765 91.9238
701 2 14.1339 54.5936 88.3015
702 1 13.7477 52.6492 90.1837
703 2 15.2249 50.5787 89.0349
704 1 16.403 53.1644 88.7715
705 2 16.8728 52.7379 91.4167
706 1 20.8817 50.073 88.7154
707 1 18.0441 50.6315 89.7366
708 1 19.3262 53.2744 89.1937
709 3 18.627 50.8037 92.3571
710 3 20.5099 51.6141 90.7959
711 1 21.3154 50.2657 92.7909
712 1 19.4075 53.4122 92.5022
713 4 25.9537 50.1132 89.2023
714 2 24.7912 53.0905 89.9833
715 4 23.3765 50.8534 90.3533
716 1 22.2527 53.2124 89.2676
717 1 22.4343 53.0746 92.281
718 1 25.7988 53.4318 92.4756
719 2 26.4785 50.8038 91.7822
720 1 29.1558 50.0657 90.4971
721 5 27.2879 52.3596 89.8577
722 5 28.5815 52.4425 92.3291
723 2 29.945 52.7034 89.8746
724 3 31.2801 50.9066 88.5307
725 1 31.3182 53.7537 92.2082
726 3 32.6026 53.1914 89.5862
727 3 34.4332 51.4555 89.5467
728 1 35.1639 54.1155 88.9376
729 1 34.2679 52.7374 91.8224
730 1 31.8786 50.9941 91.063
731 3 38.0756 53.5967 88.5724
732 1 38.9415 51.0243 89.7907
733 2 36.6546 52.3887 90.4282
734 2 38.5202 52.8194 92.0382
735 1 40.3025 53.5819 90.1395
736 1 36.7554 50.7378 92.6293
737 1 4.42373 56.079 90.1004
738 1 4.19675 58.4832 88.2471
739 1 6.87216 57.2566 88.5004
740 1 3.06287 58.492 91.062
741 3 5.78322 58.5326 90.7072
742 1 7.19429 56.0311 91.2556
743 3 9.39117 56.6428 89.1505
744 1 11.5464 58.2438 89.5012
745 1 8.68274 58.6903 90.6955
746 1 10.1418 56.0294 91.7334
747 1 11.825 55.2493 89.361
748 1 14.9105 55.2578 91.0102
749 3 13.9579 57.0358 89.4436
750 1 14.6793 59.2489 88.175
751 3 16.359 57.6115 89.8992
752 5 14.4765 59.299 90.9489
753 5 12.7754 57.1724 91.8923
754 1 16.5653 57.6802 92.5269
755 3 18.9912 57.7926 90.5839
756 3 18.9702 55.9425 88.5769
757 1 21.0301 57.6304 88.5501
758 1 20.9007 55.5282 90.653
759 1 17.7697 55.3671 90.7435
760 5 21.3641 58.0112 92.1482
761 1 25.7001 55.1196 88.3958
762 3 23.1212 55.8831 88.7014
763 5 23.2711 58.2246 90.1901
764 1 26.1257 57.447 90.2477
765 1 23.971 55.5388 91.247
766 4 25.0918 59.2893 92.0586
767 5 27.6247 54.8999 90.758
768 3 28.2184 56.5693 88.8015
769 3 27.5495 58.9466 88.5301
770 1 28.9023 57.5777 91.2948
771 1 30.383 58.0702 88.2933
772 1 30.4492 55.3712 89.8504
773 1 31.513 56.9537 92.5329
774 3 32.4237 57.5451 90.0514
775 1 35.3067 57.1425 89.6655
776 3 35.2593 55.1914 91.4151
777 2 34.1106 57.5443 92.0569
778 3 33.0428 55.3038 90.7888
779 2 37.9623 57.6901 90.4717
780 3 37.4216 56.2448 88.2078
781 1 38.9195 58.789 88.1833
782 1 39.9913 56.1787 88.8509
783 2 40.5146 58.4432 90.4748
784 1 37.7232 55.0241 90.6862
785 3 39.9804 56.146 91.5702
786 1 36.2695 59.2986 91.8405
787 1 4.74287 60.1735 92.7623
788 2 6.76492 59.9588 88.8171
789 1 5.97264 63.5082 89.9079
790 5 4.46987 60.9489 89.9208
791 1 7.16064 61.1213 91.2293
792 2 5.55572 62.7697 92.7889
793 4 11.6861 59.9114 91.7928
794 5 8.08558 62.1758 88.2826
795 2 9.90804 60.9941 89.7959
796 5 10.6067 63.4848 88.7774
797 1 8.70386 63.7015 90.9149
798 4 11.5664 62.8749 91.4623
799 4 9.67884 61.3664 92.671
800 5 12.561 60.9612 89.2602
801 1 13.4347 63.6581 89.272
802 3 15.2167 61.5542 89.4952
803 2 15.9786 63.3961 88.2694
804 1 14.3973 62.1739 91.9082
805 3 15.9487 64.196 90.6247
806 1 19.1579 59.7884 92.5468
807 1 17.2674 60.0809 90.162
808 1 20.3491 60.2859 89.8716
809 1 18.4844 62.8383 88.8937
810 3 21.3874 62.4023 88.266
811 1 17.8147 62.5463 91.7768
812 1 20.9237 63.1895 90.771
813 5 22.5742 60.0183 88.0607
814 1 25.2368 60.328 89.2985
815 2 23.2734 62.1674 89.7968
816 2 25.4583 63.278 89.0946
817 1 22.5926 60.6952 91.912
818 1 25.4772 62.1933 91.6605
819 5 30.9586 59.6186 90.8457
820 1 27.4924 61.8785 88.1568
821 4 30.0 60.8076 88.5703
822 1 28.3654 63.4067 90.7718
823 1 28.0046 60.3921 90.8911
824 4 30.1182 63.4811 88.4447
825 1 30.6534 62.1811 92.4135
826 1 33.8443 59.8593 90.3061
827 4 32.2562 61.9413 89.0151
828 5 34.1861 63.8873 89.3246
829 5 36.0301 61.9436 90.4972
830 5 33.4941 62.4445 91.6495
831 3 35.8062 63.5389 92.6474
832 2 36.8021 63.6974 88.5297
833 3 36.4306 59.5671 89.226
834 1 38.2072 63.4254 91.4967
835 1 38.6891 60.608 90.4955
836 3 6.45192 65.0581 92.2656
837 1 8.38226 66.5997 91.2769
838 4 8.72089 65.7315 88.4336
839 2 10.9606 65.5212 90.5096
840 2 10.1769 67.8588 89.507
841 1 10.966 67.756 92.1688
842 1 13.3624 65.3333 91.8609
843 3 14.6464 65.9185 89.1954
844 1 15.6508 68.365 88.6394
845 1 13.0241 67.7911 90.0199
846 1 15.8241 66.863 91.4058
847 2 13.6116 68.4501 92.7281
848 2 17.7168 68.3713 90.2838
849 2 20.1313 64.9 88.7069
850 1 17.2325 65.7589 88.4397
851 1 19.6915 67.4725 88.8336
852 1 18.5977 65.467 91.0778
853 1 19.7462 68.1832 92.0137
854 2 21.7714 66.1869 90.0419
855 1 21.3832 65.4775 92.5059
856 1 23.9022 64.6707 90.9971
857 2 26.5641 64.7083 92.3802
858 1 22.8664 64.5677 88.2508
859 1 24.4128 67.2918 88.6659
860 1 26.4993 65.5382 89.7324
861 3 24.0159 67.3654 91.2365
862 1 22.0489 68.7503 90.1198
863 1 26.5443 67.4945 92.0426
864 2 26.9018 68.1483 89.4185
865 1 29.2888 66.2888 89.2985
866 1 29.2101 65.871 92.4425
867 1 29.3304 68.6723 91.4633
868 1 31.5888 68.0703 89.5861
869 3 33.5306 66.3738 90.2782
870 3 34.1647 68.722 89.589
871 1 35.1205 66.5955 88.0749
872 1 31.4982 64.6329 90.8028
873 1 36.1232 65.4672 90.6572
874 3 31.7884 67.0724 92.1266
875 5 33.8458 65.1032 92.5065
876 1 34.6871 67.7704 92.2028
877 1 12.0653 70.3878 90.8824
878 1 13.9802 70.7195 88.3922
879 2 14.3464 72.1179 90.7722
880 2 14.7885 69.6426 90.9056
881 1 16.9608 70.9688 89.8186
882 2 16.5354 72.3369 92.1385
883 1 16.7891 69.4275 92.6276
884 1 19.2129 72.0454 88.0637
885 3 19.576 70.0279 89.8486
886 4 20.4766 73.303 90.8276
887 5 21.7929 71.4394 89.3234
888 3 21.6187 73.6575 88.0942
889 1 19.1239 71.1677 92.2357
890 1 24.832 70.0362 90.4806
891 1 23.6747 73.0222 90.8196
892 2 26.0618 73.5674 92.1799
893 2 26.2105 72.3189 89.7796
894 1 22.1393 70.7955 92.1998
895 2 29.1037 69.0624 88.65
896 1 28.7639 71.8145 88.3584
897 3 27.5908 70.2881 90.2227
898 1 28.4757 72.5309 91.2791
899 3 30.3669 70.7693 90.2683
900 1 32.49 69.7832 91.6961
901 5 12.2433 38.1988 94.3912
902 1 10.4355 40.4581 93.0896
903 3 14.6864 37.3614 95.1053
904 1 14.6128 39.8981 94.0084
905 3 13.6237 39.0691 96.742
906 1 16.3546 38.9405 96.4903
907 1 17.0937 37.9497 93.7802
908 1 19.446 40.1733 96.0297
909 1 20.0807 37.5747 94.0073
910 2 21.4646 38.2704 96.369
911 2 18.8221 37.5855 96.5733
912 1 21.9673 39.9489 94.1709
913 1 23.9526 37.8797 95.3345
914 3 25.3876 38.032 93.129
915 2 23.9169 40.514 95.9548
916 1 26.434 39.8033 95.0162
917 2 26.1155 37.767 96.921
918 1 27.9331 37.4804 94.0485
919 4 30.7979 38.093 95.0197
920 3 28.9361 39.9602 93.8025
921 1 28.6562 38.7453 96.8043
922 1 31.759 40.2673 93.4365
923 1 7.59183 43.659 95.7056
924 3 8.66927 42.3704 93.6769
925 5 10.5596 43.6167 95.0171
926 1 9.64514 41.8306 97.0665
927 3 8.72942 45.1373 93.8722
928 4 12.492 42.4647 93.301
929 1 12.0291 40.8512 95.5739
930 2 17.1053 40.8178 94.6723
931 1 15.0986 42.8628 94.1534
932 3 14.7334 41.2738 96.3557
933 1 13.1436 43.5707 96.33
934 1 16.4238 44.5563 96.3831
935 5 17.2204 41.665 97.2065
936 1 18.0219 43.3628 94.0218
937 3 20.242 41.9375 94.1026
938 1 20.8112 44.3438 93.375
939 4 19.401 43.2209 96.4359
940 2 21.7948 40.7012 97.4033
941 1 24.5532 40.6321 92.8394
942 2 26.6722 44.6161 93.9546
943 1 23.5732 45.1695 94.3356
944 1 22.1421 42.7248 95.7581
945 2 22.958 42.6852 93.2484
946 1 25.193 42.7841 95.3374
947 3 23.5093 44.6873 96.9797
948 2 30.0972 40.6916 95.7087
949 1 27.4521 42.1561 93.2231
950 4 28.0109 41.9925 96.0048
951 4 28.6515 44.673 95.5708
952 1 30.4216 42.8165 94.1623
953 1 33.2573 44.1304 94.3351
954 3 34.0414 41.5708 94.1676
955 3 32.3183 41.7538 95.8612
956 5 35.754 43.4658 95.6785
957 1 33.4308 43.6033 97.4026
958 1 5.33147 48.7586 94.0581
959 2 6.43418 46.0448 94.5691
960 5 6.96597 48.1368 96.459
961 4 6.16531 45.6894 97.4081
962 4 4.24188 48.1298 96.7507
963 1 8.5012 47.7984 93.9796
964 1 9.13306 46.0993 96.5294
965 2 11.0611 48.8352 93.5231
966 1 11.1699 46.1617 93.6971
967 3 11.7694 45.851 96.2344
968 1 9.9121 49.2246 96.1437
969 3 16.075 45.272 93.7183
970 3 13.7404 45.5147 94.5689
971 1 13.6242 47.682 92.8108
972 1 12.7065 48.2716 95.5762
973 1 15.6704 47.4524 95.1312
974 2 17.2073 49.0204 93.5562
975 5 14.1752 46.2117 97.2496
976 1 14.7194 49.3651 97.5077
977 3 21.1892 45.4799 95.9417
978 1 18.4461 46.4558 94.8889
979 3 19.4708 49.1647 94.2841
980 1 17.7461 49.876 96.0923
981 1 21.0029 47.1802 93.6217
982 1 20.1482 48.1629 96.7307
983 3 21.8882 49.4595 95.2242
984 5 23.5553 48.2197 93.6045
985 4 25.6018 46.649 92.8447
986 1 26.0332 48.6725 95.0867
987 4 23.1787 47.3371 96.1595
988 1 25.883 45.895 96.2544
989 5 30.8393 45.6544 93.4841
990 4 31.3377 45.3404 96.2064
991 5 28.0825 49.4845 93.2722
992 4 28.2239 46.5038 93.0404
993 4 29.1624 47.3862 95.2613
994 3 27.4955 47.8425 97.1953
995 4 30.6696 48.4586 92.9754
996 1 33.2708 47.1146 93.0253
997 4 32.0221 48.0527 95.5705
998 4 34.2819 46.3483 95.8429
999 4 35.2174 48.6611 94.3824
1000 1 38.1858 48.3294 94.0738
1001 1 36.2906 45.6882 93.8185
1002 4 37.2476 46.9454 96.5128
1003 4 3.24036 50.9013 94.1865
1004 2 6.03372 54.4589 93.4294
1005 3 7.4802 50.1937 94.9559
1006 1 4.22844 53.474 95.3006
1007 1 5.91689 51.6254 93.2065
1008 1 5.33777 50.9035 96.4156