# LAMMPS data file written by OVITO Pro 3.7.7
1742 atoms
5 atom types
0.0 250.0 xlo xhi
0.0 90.51 ylo yhi
0.0 181.02 zlo zhi

Atoms  # atomic

1 1 26.2632 13.8431 88.8284
2 5 28.6797 12.4854 90.0136
3 2 31.3303 14.5517 90.1335
4 1 20.3078 18.9051 90.6665
5 1 23.0504 17.9016 88.9416
6 2 24.0535 15.2779 89.6825
7 4 27.5963 17.7586 90.6103
8 1 28.7753 15.4027 89.2553
9 1 25.9681 17.0233 88.435
10 4 28.825 17.5711 87.2573
11 4 29.6453 19.0845 89.4561
12 2 32.1537 18.9611 90.1845
13 1 31.5912 16.7809 88.5854
14 2 31.387 19.2238 87.3459
15 3 34.0301 18.0583 88.6624
16 1 34.1706 15.2836 88.9526
17 3 37.858 19.3657 90.445
18 1 36.4244 17.1964 89.704
19 1 40.494 18.7488 90.447
20 1 22.6523 23.6158 90.421
21 1 22.4473 20.8313 89.4073
22 3 23.4126 22.8698 87.8784
23 2 20.737 23.1248 88.6081
24 1 24.4519 20.0862 87.2874
25 1 25.3604 19.6351 90.1746
26 1 25.7909 22.6429 86.3279
27 1 27.369 20.0672 87.8993
28 2 25.4704 22.0544 88.9693
29 1 27.8478 23.2507 88.2549
30 1 27.869 21.4567 90.5849
31 2 28.5139 21.5946 86.0003
32 1 30.3844 21.6756 88.1246
33 1 33.3372 20.7625 88.6171
34 2 32.3076 23.014 86.6836
35 5 29.9074 23.6756 90.2491
36 1 32.8391 23.665 89.3526
37 1 36.2588 19.9566 88.3277
38 2 34.9057 22.7733 87.6481
39 4 36.1627 21.6645 90.5874
40 1 37.6247 22.8309 88.3767
41 2 38.8337 21.6661 90.6413
42 1 39.2855 20.4197 88.4068
43 2 40.35 23.454 89.3039
44 2 41.5192 21.3539 90.3294
45 3 18.0905 25.752 90.0929
46 1 23.7204 27.0751 90.4909
47 3 24.186 24.8304 86.6028
48 5 22.2911 25.5416 88.3138
49 1 20.5899 26.9971 90.2285
50 2 22.2531 28.5248 88.5111
51 2 24.5576 27.1477 87.7105
52 1 25.2516 24.7848 89.1839
53 2 26.2157 27.6424 89.5946
54 1 26.7642 25.5856 86.5945
55 2 29.0673 24.0846 85.9588
56 1 28.2034 26.0069 89.1453
57 1 27.1294 28.4652 87.269
58 3 30.5247 24.496 87.8932
59 1 33.551 26.8491 90.1872
60 4 29.8064 26.7596 86.6632
61 4 30.9098 26.3017 89.7272
62 1 32.9604 25.7431 87.266
63 2 29.4305 28.5249 88.6917
64 1 32.0637 28.5116 87.817
65 1 38.2924 24.5789 90.7012
66 1 35.658 25.187 88.6955
67 1 35.13 28.2337 87.9416
68 1 37.9514 27.1259 88.8058
69 3 40.2842 26.2551 90.0228
70 3 40.291 28.6836 89.439
71 1 19.9979 29.9086 89.7288
72 2 22.5477 31.9725 89.2051
73 4 25.994 32.6372 88.2843
74 1 24.7544 29.8003 88.6837
75 1 27.7097 30.6478 89.2813
76 4 24.9019 31.9983 90.7023
77 5 31.2343 28.9077 90.6427
78 3 33.4443 29.8621 89.5903
79 1 30.6884 31.0621 88.7878
80 3 30.4747 33.0737 90.6659
81 3 32.9654 32.4172 89.1851
82 2 35.3816 31.2152 88.7037
83 1 37.9144 30.1532 89.152
84 1 37.1518 32.9482 90.4305
85 2 25.1707 34.6115 89.9843
86 1 27.7437 33.4431 90.6931
87 2 29.3632 33.4772 88.5265
88 1 32.087 34.9368 89.8051
89 3 34.6002 34.0537 90.0553
90 4 35.7579 36.3113 90.6584
91 2 23.4608 9.39102 95.1728
92 1 26.3976 10.1332 94.2596
93 4 28.7393 8.62247 94.6093
94 4 31.3381 9.81852 93.1528
95 4 32.9408 10.0321 95.3184
96 1 18.9571 13.5687 94.0228
97 5 21.0362 11.0989 94.4311
98 3 22.2972 13.4151 94.6568
99 1 21.4045 13.2725 92.1456
100 5 24.1255 12.848 90.7914
101 1 23.9867 11.6978 93.624
102 1 23.9327 14.7411 92.9839
103 2 26.549 12.1342 91.6813
104 4 26.6802 13.4217 93.9103
105 1 28.8711 11.3565 93.1426
106 1 31.3407 12.1844 91.4506
107 1 29.2416 14.1714 92.2325
108 4 29.3206 14.4649 95.1023
109 4 31.4197 12.4644 94.4723
110 1 33.902 11.9114 92.9232
111 3 33.5551 13.8827 91.1631
112 2 35.5368 10.3505 94.7851
113 1 36.0814 14.7263 91.4336
114 1 36.7034 12.6712 93.8346
115 3 38.5798 14.2045 92.4585
116 2 34.5248 14.5652 93.6643
117 1 39.4391 13.2577 95.0996
118 4 42.1702 14.037 94.7683
119 1 17.0661 16.0435 94.5512
120 2 19.1527 17.887 94.5226
121 1 19.0622 16.109 92.1029
122 1 17.34 18.4118 92.3998
123 1 15.2373 18.4862 94.6446
124 1 21.8778 16.2066 91.1482
125 1 21.1738 15.7175 94.0708
126 2 21.1455 18.264 93.2097
127 4 23.6816 17.5246 94.0639
128 4 23.0642 19.0795 91.8231
129 1 26.5263 14.9806 91.3984
130 4 24.7406 17.1123 91.3997
131 4 26.0018 16.091 94.4594
132 4 26.3333 18.6258 92.9917
133 4 28.2956 16.7374 93.2101
134 4 28.9932 19.3626 92.3069
135 5 31.9443 14.8056 92.9911
136 1 30.4556 16.8768 91.3672
137 1 33.6367 16.9818 94.4223
138 1 33.44 16.6984 91.3234
139 4 30.6786 17.1061 94.7171
140 1 31.8431 19.0846 92.8539
141 1 37.0551 15.5922 94.2873
142 2 35.7453 17.2711 92.5059
143 3 36.1609 17.9644 94.8333
144 1 38.4534 17.1011 91.9901
145 5 34.7918 19.2541 90.9366
146 3 39.8054 15.6945 93.9487
147 1 38.8147 18.1735 94.8989
148 2 41.0296 17.7317 93.0478
149 4 43.5442 17.7234 93.8702
150 1 19.4392 20.3879 93.0917
151 3 18.0552 20.6391 90.7899
152 3 17.5311 19.6891 94.8005
153 3 15.5831 21.0815 95.2166
154 1 15.0803 23.1856 93.6606
155 1 17.9728 22.3344 94.9116
156 1 17.9077 23.238 91.9846
157 2 16.47 20.9535 92.8473
158 3 20.26 21.81 90.8034
159 1 21.9752 20.5964 94.641
160 5 20.5418 22.9564 93.1832
161 2 22.4196 21.4629 92.0867
162 1 23.5158 23.2613 94.0041
163 4 24.6601 20.4653 93.7518
164 1 25.1116 22.3129 91.5611
165 4 27.2789 21.3202 93.422
166 4 29.3288 20.2202 94.7793
167 5 29.1885 23.3069 92.8853
168 4 30.7285 21.1839 91.0468
169 1 31.5412 22.029 93.9579
170 1 33.4014 21.6607 91.6327
171 1 33.793 24.0484 94.2084
172 5 36.9225 19.6583 92.7838
173 5 34.3718 19.6599 93.8252
174 3 35.2852 21.9653 93.5162
175 1 37.7478 22.5185 92.9392
176 1 36.5247 23.4049 95.4655
177 1 39.7078 20.1572 92.8049
178 1 40.5726 22.9881 92.2813
179 2 42.3683 20.1258 92.5298
180 3 41.7846 21.9878 94.4297
181 1 43.5577 22.6614 92.5079
182 1 41.4972 19.5562 95.3154
183 2 39.3339 21.6158 95.0086
184 5 44.1573 20.4773 94.5552
185 1 44.1237 23.2986 95.3705
186 3 14.35 25.7803 94.0051
187 2 16.213 27.6177 93.7717
188 1 16.0445 25.6054 91.9122
189 1 18.8124 26.2637 92.6733
190 1 16.9804 25.0372 94.9112
191 1 17.5906 28.3736 91.0943
192 3 18.186 27.2352 95.344
193 3 20.037 24.351 90.7787
194 3 19.6881 24.9059 94.7107
195 1 21.7305 25.351 92.595
196 1 20.7547 27.4224 94.6101
197 2 23.8627 26.3538 93.7553
198 3 22.1897 27.8596 92.4722
199 1 26.4701 24.2008 93.7087
200 3 24.4452 24.8433 91.905
201 3 27.1897 24.1541 91.009
202 1 28.5231 28.2351 91.2392
203 1 26.3046 26.6586 92.1041
204 1 28.6692 26.3205 94.3167
205 1 25.9018 26.9995 95.2134
206 2 29.1707 25.6858 91.7839
207 5 32.0332 24.474 91.9547
208 2 31.0028 24.8325 94.3698
209 1 31.4203 27.1638 92.8343
210 2 33.2927 28.4736 94.567
211 1 35.2122 24.1438 91.5413
212 5 37.391 25.3579 93.4087
213 1 34.4934 26.7559 92.9777
214 3 35.5732 25.8909 95.2264
215 2 36.8961 27.8565 93.429
216 3 36.4603 26.461 91.0678
217 1 38.6838 28.0572 91.5543
218 1 38.8717 27.3932 95.2089
219 1 42.3982 24.8411 90.88
220 1 40.2821 25.9383 92.7799
221 2 40.7031 28.6159 93.496
222 3 42.0266 24.3588 94.1015
223 1 42.1325 27.9007 91.4301
224 1 39.6258 24.2033 95.1939
225 1 41.6876 26.7507 95.4282
226 1 43.847 25.9856 93.359
227 1 18.2676 29.3695 93.9734
228 2 18.1946 31.1095 91.836
229 1 16.4274 31.7544 94.0881
230 1 19.4763 32.0732 94.3085
231 2 20.0499 28.8709 92.1363
232 5 21.5761 30.103 93.7963
233 1 22.7392 29.9323 90.9298
234 5 20.7667 31.9218 91.6987
235 4 23.6777 31.9354 93.2744
236 2 27.1617 28.9721 93.61
237 1 24.4455 28.9745 93.1744
238 2 26.0439 29.5435 91.1483
239 1 26.7339 31.6089 92.8487
240 1 25.5917 30.4531 95.4803
241 2 26.5839 32.9713 95.1723
242 1 28.8098 31.4206 95.078
243 3 29.5601 29.0686 93.6449
244 1 29.3714 30.9496 91.7363
245 3 33.3864 29.1192 92.0164
246 1 31.815 30.5905 93.6162
247 3 32.0412 31.282 91.1303
248 2 30.012 33.0232 93.2092
249 1 31.7782 33.025 95.4048
250 5 34.3971 32.4923 94.156
251 1 38.5441 30.1769 94.109
252 1 35.4023 29.9643 93.612
253 1 35.7266 28.888 90.7388
254 4 37.2039 32.5912 93.4312
255 2 37.3614 30.6378 91.769
256 1 34.6321 31.6779 91.3163
257 4 42.3457 30.7592 93.0346
258 1 40.0394 30.6427 91.3216
259 4 40.0147 32.8861 93.127
260 4 42.241 32.4964 95.3432
261 1 43.6899 28.7593 94.5849
262 2 17.7719 34.1575 93.7903
263 3 21.6962 33.4447 94.6926
264 2 20.2499 34.411 92.8064
265 1 22.7318 33.9453 91.3415
266 2 24.0227 36.497 91.4981
267 1 22.5241 35.7814 93.6945
268 4 24.1893 33.9521 95.1724
269 1 25.3352 34.4365 92.7332
270 3 27.8467 34.2405 93.2351
271 3 25.642 37.0561 93.461
272 1 28.3668 37.0182 93.9669
273 4 27.1277 36.2954 91.2803
274 2 26.4173 35.4288 95.2927
275 1 29.301 34.6038 95.3053
276 1 29.9753 35.462 91.8767
277 1 32.5117 33.6312 92.3731
278 2 31.4933 35.6099 94.1588
279 1 33.2823 36.5264 92.2533
280 5 35.3734 34.4458 92.5166
281 1 33.994 35.2872 95.1247
282 5 36.117 36.985 93.5499
283 4 38.0679 35.1073 92.3663
284 4 36.8177 34.5056 95.1874
285 4 39.6092 35.3753 94.8444
286 1 26.5032 38.8845 95.4537
287 4 31.027 38.1993 93.5416
288 1 33.8067 38.2005 94.9301
289 1 21.4266 9.40716 97.1187
290 3 23.9507 8.58476 97.7619
291 2 22.7012 8.11011 100.024
292 1 20.2298 9.6765 100.032
293 5 26.3001 8.10996 96.6568
294 1 25.6226 7.74352 99.7549
295 4 27.9456 6.48641 98.6046
296 3 28.2533 8.82255 99.8773
297 4 29.5475 8.15853 97.2194
298 4 32.3231 8.65873 97.8758
299 4 30.5768 7.57044 99.7753
300 4 36.5474 8.37604 97.7381
301 1 34.4881 8.72683 99.9572
302 1 39.0636 9.4895 98.7158
303 1 18.923 10.9463 96.5502
304 3 16.0088 13.3075 99.1864
305 1 17.4469 13.7167 96.8579
306 1 18.3984 12.0083 99.3414
307 1 20.5188 13.3707 96.4796
308 3 20.8374 11.7105 98.3923
309 3 22.6521 11.7135 96.4573
310 1 22.8287 13.6497 98.3835
311 1 23.1233 10.7207 99.1786
312 1 19.8969 14.7046 99.103
313 1 25.0883 10.8543 96.7637
314 4 27.8139 10.1677 97.4466
315 1 24.6123 13.7737 95.9058
316 2 25.4382 12.9555 98.3551
317 1 26.0924 10.655 99.6916
318 4 27.7232 12.3072 95.9659
319 4 28.1022 12.8025 98.6769
320 4 30.1659 10.5491 95.8655
321 4 30.3678 13.0677 97.1847
322 4 32.342 11.4081 97.7958
323 1 32.9986 14.1541 98.4279
324 4 30.0143 10.564 98.8193
325 1 30.4614 13.6006 100.238
326 4 34.7782 10.377 97.4318
327 1 34.2593 12.8046 95.7355
328 1 37.6196 11.1182 96.5016
329 3 37.2362 13.8321 96.339
330 3 35.0193 14.7474 100.132
331 4 35.8041 12.9645 98.0634
332 2 36.5968 10.6172 99.3479
333 1 34.2432 11.9307 100.103
334 5 40.8637 11.4313 97.0397
335 1 38.9051 12.5693 98.8078
336 1 41.3406 10.7717 100.044
337 2 42.8249 12.7375 98.6032
338 1 40.8334 14.4519 97.6375
339 3 13.6083 17.6238 98.9643
340 1 19.3927 16.0384 96.4687
341 4 15.1164 16.1146 97.1111
342 1 17.2953 18.1081 96.8863
343 2 17.3468 15.8514 98.5856
344 1 16.153 18.2289 99.5907
345 1 21.6633 17.9736 96.0984
346 3 22.4275 15.346 96.339
347 2 19.8096 17.9058 98.3301
348 1 22.1872 16.6128 98.7042
349 1 24.3112 18.6073 99.1646
350 4 27.0567 14.8937 97.2306
351 4 26.814 19.2748 95.7909
352 4 28.1974 16.8666 95.855
353 4 24.6629 16.7896 96.7279
354 1 25.0625 15.4997 99.3659
355 1 27.1798 17.8579 98.3595
356 2 28.7052 19.1056 100.213
357 3 27.8814 15.2548 99.8303
358 5 32.1308 14.8652 95.7866
359 2 32.1754 19.3351 95.5779
360 1 29.923 15.8502 98.2108
361 1 29.9008 18.7451 97.1966
362 1 32.5733 17.1372 97.5454
363 2 30.8959 18.1761 99.5631
364 1 37.6576 15.3006 98.7202
365 1 34.7192 18.9268 96.7833
366 1 35.2107 15.649 96.6721
367 1 35.2922 17.3328 99.293
368 2 37.1503 17.5714 97.1174
369 1 41.5008 16.6678 95.7137
370 2 38.8394 15.7521 96.308
371 1 39.7268 17.7821 97.9194
372 1 43.3537 15.0944 100.074
373 3 42.1593 16.8448 98.3736
374 1 40.3412 15.915 100.232
375 1 43.7405 15.08 97.0465
376 1 43.9725 18.1893 96.7702
377 1 43.7274 18.3425 99.8556
378 5 45.6696 16.5234 98.6614
379 1 13.1236 20.1297 99.9779
380 4 13.1688 21.6899 95.5284
381 4 12.8387 22.5945 98.3004
382 1 14.5733 19.7187 97.3356
383 1 18.6355 20.0814 99.3011
384 1 15.9253 21.5165 99.4476
385 1 15.4409 23.2348 96.9017
386 2 17.0978 20.8257 97.1169
387 1 18.2856 23.1757 97.9642
388 3 16.5608 24.0162 99.9775
389 2 21.8598 19.6481 98.4616
390 4 24.0939 19.5116 96.3364
391 1 19.6333 20.084 96.4319
392 1 20.6632 22.9523 96.0974
393 1 23.3893 22.3675 96.9975
394 4 20.7561 21.9296 98.7692
395 1 23.5179 21.781 99.8903
396 1 28.6684 23.4109 95.7772
397 5 26.0383 22.0357 95.792
398 2 25.4498 20.7432 98.1089
399 1 28.0732 21.0705 97.9546
400 1 25.9125 23.3943 98.501
401 2 29.8321 23.6205 98.304
402 1 33.8287 21.6156 95.9479
403 3 32.0462 23.8134 96.4023
404 2 32.3908 19.7563 98.1214
405 1 30.8497 21.5701 96.8013
406 1 33.017 22.589 98.6808
407 1 30.6138 20.9271 99.7129
408 1 36.9029 20.5104 95.5361
409 2 34.4914 20.3095 99.0397
410 1 37.1201 19.9411 98.5273
411 2 35.7577 22.1231 97.7093
412 1 38.4499 22.832 97.7665
413 2 39.3108 20.1638 96.9018
414 1 39.8158 20.7412 99.5112
415 3 41.8734 19.4595 98.0035
416 1 41.3999 22.0777 97.0792
417 1 40.9542 23.7604 99.659
418 2 43.567 23.498 98.4017
419 1 42.8707 21.2377 99.8561
420 4 44.2912 21.0842 97.3168
421 3 45.8829 23.6232 97.4421
422 4 46.181 19.4627 98.717
423 1 45.7042 22.2166 99.8705
424 4 11.6262 26.1563 99.7374
425 4 12.9833 24.6053 96.0558
426 4 12.3916 27.3275 97.3981
427 1 14.2539 25.1888 99.0016
428 1 14.6603 28.4721 98.8814
429 1 15.0366 26.6928 96.4027
430 3 18.9512 25.1692 99.7816
431 1 17.4302 28.3088 97.5717
432 2 16.9292 25.529 97.8851
433 1 19.4281 27.8723 99.6609
434 1 21.7205 24.5744 98.7282
435 1 22.4454 25.3666 95.8534
436 1 23.3032 28.3904 95.981
437 1 19.535 25.9397 97.1916
438 2 21.7454 27.4316 97.931
439 1 24.3003 26.1523 98.139
440 2 25.1341 24.5306 96.0728
441 1 24.5179 28.6424 99.8914
442 1 27.5941 25.7553 97.4531
443 1 27.597 28.1634 99.4569
444 2 25.7354 28.3925 97.4851
445 1 30.8298 27.9648 95.6253
446 1 29.2532 25.66 100.133
447 3 29.8807 27.3911 98.108
448 1 33.0518 26.2434 95.9522
449 1 31.9497 25.4855 98.6782
450 1 32.4962 28.4917 98.0152
451 3 30.2053 25.5166 96.6039
452 1 36.0072 28.3573 96.0092
453 2 34.5205 24.2339 97.1397
454 3 36.3631 24.2899 99.0087
455 1 34.9354 26.6098 98.2848
456 1 38.4352 25.7598 99.7775
457 1 37.4696 25.691 97.014
458 3 37.3931 27.9961 98.4341
459 2 42.1882 24.546 96.6678
460 2 40.0946 25.3162 97.6132
461 1 40.1895 27.959 98.1152
462 1 42.5893 26.1359 98.8977
463 2 42.9543 28.2036 97.2775
464 1 44.6201 28.4858 99.6127
465 1 44.6184 26.068 96.5543
466 1 45.4394 25.3131 99.5277
467 2 47.0019 27.2088 98.4841
468 4 12.9512 30.1711 97.2267
469 1 13.7313 31.4757 99.699
470 2 14.6492 32.3486 96.5502
471 1 15.416 29.5404 95.6777
472 2 17.9553 30.7546 96.2481
473 1 16.2847 31.0645 98.261
474 2 18.9758 30.5206 98.818
475 5 18.1717 33.0546 99.3822
476 3 17.0767 29.3878 100.165
477 1 22.626 31.3768 96.0499
478 1 20.2418 29.3837 96.6519
479 1 21.7132 29.9737 99.3135
480 1 20.0828 32.4127 97.2032
481 3 24.1006 30.2425 97.8993
482 3 22.4073 32.4021 98.4846
483 2 24.1852 31.4725 100.138
484 1 28.1592 28.7403 96.2866
485 1 24.822 32.8037 97.5932
486 1 26.9646 30.8952 98.0865
487 2 26.2708 33.2118 99.954
488 1 29.7765 30.1008 98.5838
489 2 31.0307 30.4951 96.2725
490 1 33.7128 30.4824 96.14
491 2 29.9695 32.5501 97.3998
492 1 32.4017 31.628 98.5081
493 2 35.0908 29.4614 98.2496
494 2 38.3826 29.6432 96.8058
495 1 35.2152 32.6352 99.036
496 1 36.5015 31.5646 96.2982
497 5 37.1833 30.5697 99.0573
498 3 37.8196 33.043 98.2709
499 3 34.2923 33.0119 96.6207
500 1 41.064 29.8881 95.8455
501 1 39.2396 32.6198 95.9665
502 1 43.1056 30.7125 97.9139
503 1 40.0208 31.1283 98.4797
504 3 42.1892 32.6347 99.3406
505 2 41.9884 29.0644 99.9832
506 4 44.843 31.4476 95.605
507 1 45.6455 28.9955 96.8933
508 1 45.8817 31.3748 98.8756
509 1 17.2719 33.3966 96.4961
510 2 17.5199 35.5056 98.1232
511 1 15.4679 33.8828 99.3091
512 3 20.0733 34.699 98.3988
513 1 19.7181 35.0821 95.6348
514 1 24.2372 37.0516 95.7423
515 2 21.3663 37.3508 95.6771
516 1 22.3897 34.867 97.1587
517 1 19.6247 37.2302 97.8822
518 1 22.5882 37.8165 98.0889
519 1 23.6371 34.138 100.145
520 4 21.6359 36.1166 100.105
521 1 27.6266 33.7216 97.5122
522 1 25.3963 35.6634 98.2861
523 1 28.4761 35.1941 99.8287
524 2 27.0167 37.554 99.6896
525 1 27.9173 36.8193 97.0206
526 3 30.6954 33.6094 99.4735
527 1 32.6024 34.537 97.795
528 1 31.3115 37.1158 96.4241
529 1 31.6163 36.5698 99.6822
530 3 33.7909 36.8824 97.5804
531 2 30.0461 35.2208 97.7417
532 3 29.3625 37.6094 99.0283
533 4 38.3319 37.7803 95.5329
534 2 37.0235 34.9075 99.8755
535 1 34.4397 35.5616 99.9306
536 2 35.6759 34.8518 97.5454
537 1 38.3427 35.6004 97.4778
538 2 35.9377 36.9686 96.2134
539 1 36.274 37.5259 98.7909
540 1 39.916 33.9534 99.8077
541 4 41.2054 34.3467 97.1123
542 1 42.5749 35.3105 99.4007
543 2 40.7709 36.9604 97.994
544 1 39.0841 36.757 100.17
545 2 44.7088 33.6574 100.143
546 5 44.0426 33.4643 97.568
547 2 23.9123 40.0805 97.352
548 2 20.6973 39.7706 98.1553
549 1 22.6063 40.1486 100.138
550 2 25.4504 38.2718 97.9072
551 1 25.6711 40.3845 99.6729
552 3 27.7997 42.2548 99.8612
553 2 27.6867 39.4092 97.9176
554 2 29.3349 38.9693 95.9702
555 4 29.2545 41.3841 97.7121
556 2 33.7943 38.24 100.192
557 1 31.1159 39.4061 98.423
558 3 31.7978 39.8067 95.8305
559 3 30.6019 41.5747 100.081
560 2 33.0441 40.7787 100.041
561 1 33.9416 39.4725 97.657
562 2 36.4731 39.4471 96.7457
563 1 35.6904 40.2789 99.9969
564 1 38.8267 38.953 98.2224
565 1 18.8385 10.0249 102.929
566 1 21.5762 8.08948 102.582
567 3 23.3784 8.55107 104.509
568 1 24.1737 9.64923 101.839
569 1 24.6935 6.95107 102.595
570 5 27.0333 9.12993 102.176
571 1 25.8555 9.31913 104.691
572 1 27.9298 6.55486 101.547
573 3 26.9214 6.96528 104.014
574 3 28.5183 8.79215 104.649
575 4 30.7758 5.75464 101.793
576 3 32.6001 7.71891 101.631
577 1 29.9521 8.75169 102.474
578 4 32.5458 9.24962 103.794
579 2 32.1155 6.69529 103.908
580 1 29.4483 6.23709 104.317
581 1 37.3001 8.19447 100.851
582 1 35.0145 7.61628 102.936
583 2 37.4575 9.00117 103.501
584 3 35.2455 9.60258 104.817
585 5 40.0924 8.83068 101.962
586 1 39.5958 10.131 104.608
587 2 19.268 12.5781 101.906
588 1 17.5933 14.5112 100.995
589 1 16.6057 11.8449 101.775
590 2 15.5462 14.179 102.844
591 1 16.9744 11.9017 104.728
592 2 21.259 12.9085 100.494
593 1 21.5889 11.0143 102.251
594 4 23.9478 12.7369 100.954
595 1 19.8688 12.5669 104.49
596 3 23.572 11.0233 104.007
597 1 22.4566 13.6347 103.211
598 2 26.3788 13.3991 100.575
599 3 24.5637 13.1101 104.768
600 5 28.5084 11.2874 101.06
601 3 28.3098 11.002 103.744
602 1 25.9631 11.9174 102.829
603 1 28.1933 13.9867 102.35
604 3 26.7149 14.2654 104.601
605 1 31.9915 10.1951 100.745
606 1 32.9831 13.8259 101.944
607 1 30.6732 11.8618 102.738
608 3 30.6878 14.5896 103.059
609 2 33.3451 11.4777 103.166
610 1 35.5783 10.4627 102.236
611 3 36.8009 12.9922 100.31
612 1 38.3767 10.9625 101.351
613 3 37.5396 11.6375 103.779
614 1 35.8773 13.5207 102.624
615 1 38.7988 13.8107 101.879
616 2 41.061 13.3795 100.382
617 2 39.5434 13.3693 104.356
618 2 40.5954 11.7789 102.487
619 1 42.1653 11.7372 104.589
620 1 41.573 14.4117 102.971
621 1 43.3108 12.4137 101.753
622 1 44.3656 13.6204 104.944
623 3 13.804 15.8123 103.597
624 1 13.6626 17.8354 101.837
625 1 11.3836 19.2034 103.061
626 2 13.4623 18.1237 104.702
627 4 18.6889 17.1492 100.562
628 1 14.8556 15.5076 100.282
629 1 16.4585 16.8994 102.485
630 1 15.7202 19.1994 104.038
631 1 17.991 14.8252 104.029
632 5 19.4945 17.2662 103.471
633 1 21.2791 18.0932 101.089
634 5 20.2991 15.0866 101.999
635 2 22.6712 15.1139 100.881
636 1 22.4918 16.7913 103.497
637 3 20.697 15.134 104.731
638 3 23.9628 17.168 101.311
639 1 26.7125 17.2432 101.184
640 1 25.1036 15.0502 102.641
641 1 25.293 18.342 103.445
642 1 27.9406 16.5804 103.915
643 4 28.2112 19.422 102.81
644 1 29.6723 16.5715 101.442
645 3 29.9906 18.3043 104.633
646 2 33.2205 18.7817 100.475
647 1 32.4823 16.2445 100.469
648 1 31.0862 19.1502 102.19
649 1 32.1625 16.7667 103.558
650 1 38.1853 18.0644 100.479
651 3 34.0648 14.8955 104.083
652 2 37.1135 15.7157 101.267
653 2 35.7471 19.3926 101.088
654 1 34.0104 19.3465 103.203
655 1 37.265 15.5346 104.262
656 1 34.9011 16.638 102.253
657 4 37.1066 18.301 103.18
658 2 41.0912 18.5856 100.319
659 2 39.2003 16.4555 102.584
660 4 40.1572 18.9001 102.719
661 1 42.3986 17.0878 102.251
662 1 40.5012 16.6565 104.839
663 2 42.1674 18.8772 104.759
664 2 44.2191 14.9663 102.635
665 3 45.9604 15.9808 104.119
666 4 47.7409 19.2978 101.235
667 1 45.7717 16.9231 101.566
668 2 44.4546 18.1562 103.549
669 1 47.0544 18.6535 104.011
670 2 13.9022 22.7654 100.731
671 4 11.2017 21.8949 101.452
672 4 10.4827 21.8473 104.367
673 1 13.5847 21.0358 102.847
674 1 13.049 23.4237 104.448
675 3 15.4635 19.8531 101.459
676 3 18.4448 22.494 100.615
677 1 18.0613 19.69 102.129
678 1 16.3172 22.2765 102.477
679 3 18.9982 22.3195 102.985
680 2 23.506 19.6275 101.531
681 1 20.8895 20.9794 101.406
682 1 20.6815 23.9527 101.46
683 1 22.8087 19.7722 104.11
684 3 20.2701 19.672 103.543
685 1 23.0819 22.6355 102.749
686 1 20.8577 21.9907 104.84
687 1 26.3147 20.3541 100.688
688 1 28.2007 22.8445 100.425
689 3 25.546 22.9483 101.217
690 3 26.6747 20.2408 104.747
691 3 25.0578 20.9668 102.932
692 1 27.2617 22.3622 103.258
693 2 31.1364 23.4757 100.603
694 5 33.1075 21.3108 101.255
695 2 31.8733 20.9437 104.168
696 1 32.6639 23.355 103.173
697 5 30.0686 21.8154 102.389
698 1 29.7751 23.9764 104.206
699 3 38.4589 22.987 100.471
700 1 35.9252 22.0763 100.378
701 1 37.9873 20.8462 102.105
702 4 35.4045 22.0227 103.189
703 2 39.0407 23.0133 103.414
704 1 39.5866 20.6546 104.808
705 2 42.7329 19.7749 102.305
706 1 40.9272 21.8608 102.014
707 3 42.1006 21.292 104.252
708 4 45.2662 19.8603 101.671
709 1 44.0929 22.2304 102.625
710 1 47.0006 21.6324 103.286
711 3 46.171 23.9341 101.8
712 1 44.5993 20.3101 105.01
713 4 12.0723 24.5381 101.86
714 4 10.9295 27.21 102.439
715 4 10.5005 24.8948 104.417
716 1 13.344 26.4452 103.934
717 3 13.7948 27.0188 101.157
718 2 15.5107 24.6222 104.257
719 1 16.6057 26.7237 100.312
720 1 17.8331 24.8521 102.31
721 4 14.8224 24.7721 101.885
722 1 17.4793 26.5344 104.821
723 1 18.0491 28.3582 102.465
724 2 15.6965 27.1083 102.907
725 1 22.1393 26.9925 100.562
726 2 23.6238 24.5938 100.727
727 3 19.9304 26.4845 102.012
728 4 20.0675 24.8744 104.366
729 3 20.1104 27.5141 104.289
730 1 22.4407 25.7336 103.214
731 1 22.5076 28.5994 103.775
732 3 24.3665 27.0873 102.046
733 3 24.7953 27.314 104.49
734 1 26.1529 25.6691 100.43
735 1 25.3 24.7327 103.196
736 2 27.9049 24.9137 102.424
737 1 26.8378 27.8946 102.402
738 1 27.4151 26.3046 104.945
739 1 30.9374 28.2126 100.547
740 1 29.6512 26.9283 103.017
741 2 33.4218 27.1231 100.501
742 4 31.7488 25.5989 101.776
743 1 32.1359 26.0196 104.742
744 2 32.4254 27.9661 102.754
745 1 34.2288 24.5014 100.604
746 1 36.095 27.5288 100.821
747 1 36.9103 24.3899 102.273
748 1 34.632 26.2498 103.086
749 3 38.2317 26.729 102.275
750 3 36.817 25.7645 104.689
751 1 36.9686 28.41 103.83
752 2 43.427 24.1167 100.864
753 1 40.8658 26.8795 101.251
754 3 39.6242 24.6549 101.868
755 1 41.9421 24.4703 103.06
756 1 39.488 25.9026 104.448
757 5 39.7881 28.6788 103.379
758 3 41.855 27.0688 103.832
759 1 43.7446 26.768 101.812
760 1 46.7649 26.6829 101.931
761 1 44.9041 24.9804 103.839
762 1 44.3958 27.843 104.678
763 1 47.8474 24.4747 103.947
764 3 46.8822 26.8673 104.768
765 1 12.1571 29.0068 100.474
766 5 12.6875 29.1704 103.728
767 2 12.4817 31.2629 102.163
768 4 13.9586 31.48 104.808
769 1 14.4973 33.1296 102.246
770 1 14.8813 29.4745 101.777
771 1 16.6172 31.1717 103.452
772 3 18.3502 32.4835 104.802
773 1 18.9277 31.0119 101.458
774 3 16.3125 31.6983 100.842
775 4 15.3706 28.9284 104.957
776 2 20.6936 28.9526 101.878
777 3 22.2884 30.8774 101.766
778 1 20.6079 30.8988 104.012
779 3 23.5474 31.1561 104.516
780 3 19.699 33.1562 102.9
781 1 20.8426 33.0252 100.454
782 1 22.4377 33.2175 103.007
783 1 24.7069 29.9543 102.515
784 2 28.8324 29.5919 101.399
785 1 28.7276 32.2265 100.401
786 2 26.5183 30.5184 100.631
787 3 28.2999 28.9043 104.325
788 1 25.2515 32.8962 102.475
789 1 27.5387 31.2566 103.045
790 2 31.1617 30.9834 100.883
791 1 30.5676 29.7739 103.449
792 1 33.0046 31.2046 102.904
793 1 30.3171 32.6468 103.054
794 1 33.8255 29.7753 100.497
795 1 38.8 28.9767 100.684
796 3 35.0532 31.9331 101.473
797 3 36.4866 30.0386 101.621
798 1 37.661 32.5198 101.14
799 2 34.6066 28.9941 102.975
800 3 38.4583 30.8658 102.977
801 1 35.7606 31.3679 103.995
802 5 37.713 33.3227 104.456
803 1 40.7779 31.1261 101.328
804 1 42.5621 29.4647 103.027
805 2 40.7395 30.9102 104.534
806 3 42.537 32.2131 103.543
807 1 40.0774 33.2501 102.993
808 1 47.3694 29.2072 100.352
809 1 43.8041 31.2258 101.053
810 2 45.3195 29.1114 102.371
811 3 44.6523 31.0877 103.865
812 4 47.9126 29.062 103.37
813 1 46.6476 31.5587 102.01
814 1 46.6564 32.6454 104.895
815 4 16.1897 36.423 100.541
816 5 18.8571 35.6713 100.432
817 1 17.3355 33.9697 102.159
818 4 15.2977 35.9419 103.372
819 2 18.5125 34.9765 104.477
820 1 17.9488 37.1558 102.829
821 1 24.3152 37.705 100.43
822 1 20.5304 35.6592 102.776
823 2 23.3585 35.6938 102.305
824 1 22.5397 36.1884 104.928
825 1 29.1439 37.0895 101.945
826 4 25.2887 35.1121 104.269
827 2 28.1415 34.1475 102.34
828 1 27.8751 33.8358 104.946
829 1 26.1047 35.6435 101.508
830 4 27.525 36.8567 104.381
831 4 24.7976 37.5521 103.462
832 2 30.6489 34.9016 101.599
833 1 32.7854 33.4009 100.983
834 2 32.7044 33.954 103.706
835 1 32.8986 36.4121 102.534
836 1 30.8478 37.7122 104.368
837 2 30.2225 35.1511 104.023
838 1 35.4486 34.3021 102.462
839 5 34.8488 37.0066 104.691
840 1 36.1295 37.2779 101.903
841 2 38.2424 35.0724 102.078
842 3 37.0003 35.8491 103.96
843 3 42.3288 33.6316 101.528
844 3 38.8159 37.6715 102.665
845 3 41.6937 37.5606 100.492
846 2 40.8029 35.6239 101.858
847 1 39.6387 35.7547 104.491
848 2 42.2172 34.8254 103.865
849 1 43.5707 36.1774 101.946
850 1 41.5225 37.7417 103.39
851 1 44.7201 33.6817 102.836
852 1 19.8714 38.4569 100.635
853 2 24.14 42.167 101.389
854 1 22.133 38.2374 102.477
855 5 20.0639 38.2145 104.546
856 4 23.2654 39.2143 104.963
857 2 22.1659 40.9259 102.965
858 1 28.6475 39.8218 100.369
859 3 24.4329 39.8424 102.223
860 4 26.7132 38.6168 102.028
861 1 29.1325 40.0685 103.353
862 1 24.578 41.6987 104.23
863 1 26.7384 41.5937 102.292
864 4 26.3525 39.464 104.487
865 2 29.3448 42.4955 102.07
866 1 31.3867 39.0876 101.463
867 1 32.0907 41.9737 102.331
868 3 31.7738 40.0506 104.049
869 1 30.3499 42.3558 104.799
870 1 34.0759 39.3557 102.828
871 3 37.7299 38.9143 100.638
872 1 37.0854 40.1571 102.847
873 2 34.8839 41.8946 102.233
874 3 36.1281 42.0778 104.561
875 1 40.1475 39.5343 101.127
876 1 39.8065 40.0734 104.001
877 1 21.155 9.89748 105.092
878 4 19.9567 8.61148 107.512
879 1 22.8236 8.32461 107.256
880 1 24.131 10.0608 109.44
881 4 24.9051 6.67702 105.897
882 2 25.7457 8.98463 107.361
883 1 27.4844 5.94245 109.365
884 1 27.2575 8.92521 109.537
885 1 27.7501 7.17078 106.687
886 1 28.4607 10.0953 106.975
887 1 24.7275 7.16052 109.38
888 1 30.8234 8.32226 106.117
889 1 31.5319 5.54168 106.412
890 3 29.9101 6.68209 108.264
891 1 30.2651 9.16325 109.176
892 1 32.6743 7.53653 108.484
893 1 34.0163 7.30195 105.757
894 1 37.0968 7.90108 105.947
895 3 35.1355 8.86806 107.576
896 1 37.4206 8.80898 109.052
897 3 39.3698 9.55661 107.398
898 1 14.505 14.273 107.924
899 2 15.032 13.7195 105.317
900 5 18.8864 11.1773 106.927
901 1 17.6087 14.1591 106.843
902 1 16.2679 11.868 108.085
903 1 16.8071 14.5819 109.785
904 1 19.0076 12.6844 109.587
905 3 22.2223 12.4467 105.622
906 1 24.062 10.9381 106.568
907 1 20.5602 13.729 107.254
908 2 21.4881 10.9203 107.592
909 1 23.3299 13.2849 108.281
910 2 28.7437 11.3435 109.561
911 1 26.7 11.9123 105.75
912 2 25.557 13.9899 106.975
913 1 26.2674 11.9042 108.77
914 3 28.4439 12.8761 107.616
915 4 26.6471 14.6914 109.583
916 2 30.4877 10.7559 105.137
917 1 32.1523 13.1521 105.027
918 2 32.6677 10.3039 109.231
919 1 33.1504 10.3181 106.425
920 1 29.2242 13.2456 105.069
921 1 29.5766 14.3689 109.547
922 3 33.6942 13.0881 107.22
923 2 30.6398 14.4171 107.159
924 1 30.914 11.8143 107.686
925 1 32.5686 13.4751 109.523
926 1 35.0415 12.2958 105.106
927 3 37.4617 13.2429 105.509
928 1 37.1211 10.7305 106.445
929 1 35.0662 11.2526 108.701
930 1 38.276 11.6603 109.212
931 1 36.5294 13.6296 107.873
932 2 41.7705 10.1657 106.845
933 1 39.8544 12.1957 106.732
934 2 41.5565 14.243 105.682
935 1 42.8004 12.7321 107.479
936 3 40.5513 13.8102 108.8
937 2 41.0302 11.2876 109.197
938 1 12.8308 16.0408 106.251
939 2 11.0139 18.1484 105.562
940 1 12.5248 18.5657 107.861
941 2 17.8352 17.9117 105.288
942 1 15.6486 16.3586 105.473
943 2 14.7672 16.9496 108.161
944 1 17.3822 16.9889 107.829
945 2 19.3816 15.5225 109.139
946 1 15.4686 19.2852 107.033
947 2 19.5964 16.228 106.541
948 1 19.7214 18.2954 109.067
949 1 20.4942 18.668 105.991
950 1 23.1696 14.9852 105.844
951 3 22.8912 17.5594 106.018
952 1 21.9508 16.2872 108.256
953 2 22.2812 19.0204 108.014
954 2 25.4209 16.3403 105.139
955 1 27.9166 15.3347 106.784
956 1 24.7882 19.2115 106.388
957 1 27.7323 18.337 106.326
958 1 25.1615 16.5648 107.747
959 2 27.8667 17.0098 108.856
960 2 26.2468 18.9128 108.689
961 3 30.2026 15.8136 105.125
962 1 30.2473 17.2606 107.409
963 1 32.7834 15.686 106.351
964 1 32.3304 18.837 105.86
965 1 31.8509 18.7418 109.578
966 3 31.921 15.9713 108.963
967 1 34.125 17.5988 108.021
968 3 35.3047 14.8604 106.025
969 5 35.0725 17.4539 105.239
970 1 38.0855 18.0153 105.875
971 3 34.434 15.0803 108.559
972 2 36.6079 16.3855 107.382
973 1 36.6002 19.3203 108.134
974 1 43.4002 16.3432 105.14
975 1 38.9905 15.0178 106.805
976 1 39.031 17.0986 108.904
977 1 40.6081 18.9131 107.086
978 1 41.7826 15.9494 107.802
979 2 41.6307 18.109 109.528
980 1 43.5615 18.542 107.342
981 2 44.4024 15.0799 107.44
982 1 44.0596 16.6031 109.74
983 1 46.0084 17.2583 106.446
984 3 45.8905 18.517 108.844
985 1 12.6817 20.4967 105.657
986 1 11.5716 22.8083 107.25
987 2 14.0848 21.4439 107.766
988 1 12.2019 21.2119 109.72
989 3 13.4715 23.7171 109.062
990 1 18.1822 20.6292 105.037
991 3 18.163 19.5337 107.37
992 5 15.3896 21.7016 105.245
993 2 16.8679 19.7412 109.465
994 1 17.2144 22.0869 107.848
995 1 14.9041 23.882 106.853
996 1 17.7331 23.5291 105.219
997 3 22.664 23.8826 105.056
998 3 22.657 20.8827 106.495
999 1 20.3325 21.1485 107.818
1000 1 22.7716 23.2961 107.607
1001 1 24.2078 20.9616 108.828
1002 4 20.0519 23.9262 106.978
1003 1 24.7907 22.1173 105.359
1004 2 27.268 23.5575 105.686
1005 1 27.0309 21.0794 107.32
1006 1 28.7533 19.6679 109.583
1007 2 25.5449 23.2473 107.973
1008 1 29.1542 22.9857 107.603
1009 1 29.3123 20.9838 105.155