# LAMMPS data file written by OVITO Pro 3.7.7
1499 atoms
5 atom types
0.0 250.0 xlo xhi
0.0 90.51 ylo yhi
0.0 181.02 zlo zhi

Atoms  # atomic

1 1 28.6298 57.9395 63.802
2 2 26.1835 58.35 64.8799
3 1 31.1408 59.1327 62.7234
4 1 34.1734 58.6578 62.8682
5 2 34.6075 55.725 64.6193
6 1 32.2182 57.0415 64.5664
7 2 29.8814 55.74 65.0063
8 5 32.9111 59.8893 65.2177
9 4 37.1437 58.9126 62.6204
10 3 38.2652 58.3877 64.8794
11 4 37.2545 55.9087 65.0838
12 1 21.9849 64.5506 63.529
13 2 24.4834 63.4911 62.931
14 2 19.9566 63.4348 64.9695
15 1 22.8004 62.129 65.1639
16 3 27.4124 64.9022 61.0758
17 1 25.288 60.6999 63.2602
18 1 29.4457 63.8355 62.6332
19 1 27.8045 60.6868 64.7973
20 3 27.0861 62.6951 62.8942
21 2 28.6164 60.6504 62.2556
22 1 26.5447 65.2974 63.6634
23 1 30.9509 61.7231 61.2002
24 1 30.3885 65.2282 60.3365
25 1 30.7257 61.61 64.2799
26 5 32.5063 63.8181 62.1925
27 3 33.1438 61.2095 62.8899
28 5 31.4959 64.3745 64.7772
29 1 33.8662 62.8729 65.0471
30 1 36.1255 64.9572 61.201
31 2 37.3037 62.2497 61.9006
32 1 39.0879 64.5103 62.171
33 3 34.9217 62.9896 62.5249
34 1 35.8977 60.9569 64.1223
35 1 39.0728 61.1104 63.7469
36 1 36.9289 63.9656 64.1344
37 2 42.4095 60.9056 64.2045
38 1 41.316 63.4096 63.7132
39 1 44.1208 63.3196 64.8235
40 2 24.1925 66.1925 62.4156
41 1 23.7411 69.4555 62.7182
42 1 22.179 67.4547 64.1334
43 3 28.6931 66.385 62.531
44 1 28.4009 67.4356 60.2175
45 2 28.6027 70.104 61.1727
46 2 24.8934 67.5802 64.4171
47 1 26.5344 68.1989 62.3093
48 2 29.5348 66.1011 64.7272
49 1 27.5011 67.767 65.1778
50 2 25.4449 70.071 64.7932
51 1 34.3014 65.7731 63.5201
52 1 30.0418 68.5015 63.0314
53 1 33.3392 66.1723 60.6175
54 5 31.1403 68.0926 60.3103
55 3 33.4831 69.3946 60.2194
56 1 32.9772 68.4188 62.6661
57 3 31.3246 66.1425 62.6806
58 1 32.0363 67.1551 65.184
59 2 32.863 69.8466 65.028
60 1 35.6666 68.0958 61.1924
61 2 38.1122 69.2338 62.3623
62 5 37.4781 66.7356 63.026
63 1 35.6406 69.1783 63.9525
64 1 38.5496 68.6161 65.0326
65 1 39.7895 65.8339 64.9758
66 5 40.3609 67.5032 62.6659
67 3 42.7673 69.0061 63.288
68 1 42.8085 66.3029 63.9414
69 3 21.3028 70.4257 63.904
70 1 23.6604 72.2291 63.8813
71 1 21.8069 74.8171 64.6684
72 3 24.4592 74.797 63.935
73 1 28.9181 72.8272 62.338
74 1 26.38 74.3817 62.1505
75 1 25.9908 71.3551 61.9725
76 1 28.0508 70.4428 63.876
77 1 26.4729 72.9127 64.6949
78 2 28.2375 74.9705 64.8568
79 2 31.1823 70.6195 61.2766
80 2 31.7262 73.2735 61.7618
81 1 33.4464 75.3927 62.7225
82 1 33.8227 71.2231 62.2884
83 1 31.0555 71.3374 63.8747
84 1 30.8533 74.4168 64.156
85 3 33.1492 73.056 63.9861
86 2 36.5282 71.0988 62.1041
87 1 35.7628 73.5099 63.2877
88 2 38.7103 72.6457 62.3781
89 1 37.7301 71.5949 64.6817
90 1 38.4104 74.8497 64.1792
91 1 40.4362 70.4492 63.042
92 1 42.9728 71.2043 65.0551
93 1 40.9417 73.2745 64.1134
94 1 29.0289 75.8516 62.3472
95 1 29.0328 77.8314 64.5587
96 5 26.4136 76.6985 63.8783
97 4 31.4534 79.421 64.6176
98 3 31.3688 77.0178 63.2666
99 1 33.8085 77.7722 64.5805
100 2 35.97 76.1391 64.135
101 5 38.0908 77.7595 65.0293
102 1 29.3812 54.0445 67.1842
103 3 27.3227 54.6586 68.8447
104 1 24.6387 55.19 69.3201
105 1 29.2706 52.8724 70.0027
106 1 32.6276 54.5684 66.3931
107 1 31.9698 51.6397 69.6492
108 1 34.1727 53.4915 69.1525
109 3 31.4654 54.0195 68.6746
110 3 36.8049 52.9538 68.7627
111 3 35.2922 53.4066 66.6326
112 2 37.8194 54.7289 67.3761
113 1 22.4519 59.3961 66.8303
114 2 20.0247 59.4081 68.5142
115 5 21.6565 57.1522 68.4967
116 2 22.2437 60.1779 69.66
117 1 23.9355 58.1876 69.8691
118 1 24.8731 57.5271 67.1887
119 1 27.2443 59.4809 67.4297
120 1 27.8495 56.6294 66.7698
121 3 26.6058 60.1422 69.9525
122 2 29.2944 58.3298 68.7765
123 2 24.9247 60.28 65.8963
124 1 26.8974 57.2354 69.7267
125 1 30.1894 58.9558 66.0212
126 1 29.6872 55.7737 69.9562
127 2 33.1648 57.7947 66.9675
128 4 30.8001 56.6026 67.4051
129 1 32.7759 56.2227 69.3518
130 1 31.8295 59.4784 68.6145
131 1 35.0889 55.8643 67.4176
132 1 35.4816 58.2349 65.4809
133 1 37.4883 57.5423 67.6184
134 2 34.891 58.2285 68.8111
135 1 36.7696 55.4715 69.8831
136 1 37.0445 59.9443 69.4476
137 1 37.7067 60.3563 66.5106
138 3 38.4091 57.7634 70.069
139 3 39.6963 58.8561 68.3474
140 1 39.842 55.8104 68.9647
141 1 40.5844 59.5403 65.9187
142 2 39.8406 56.8911 66.3567
143 2 43.3396 59.5571 66.3829
144 1 42.1453 57.4299 67.9742
145 1 41.9897 60.1874 68.7751
146 1 44.8445 58.9344 68.7356
147 1 18.4948 63.8635 67.4163
148 1 17.7708 61.1675 68.9395
149 4 15.8922 63.4367 69.1146
150 1 20.0342 61.3452 66.6366
151 1 21.6152 64.2933 67.2713
152 2 24.3654 63.2383 67.4637
153 1 23.8782 65.2852 65.543
154 3 22.3419 61.8382 67.7991
155 2 19.9818 64.7317 69.423
156 1 23.0519 63.2406 69.9966
157 1 20.3401 62.0931 69.545
158 1 25.7302 62.8061 65.2715
159 2 29.3797 61.353 66.9326
160 2 26.9674 62.2036 67.5893
161 1 28.6595 63.5947 65.4257
162 1 26.6729 65.3087 66.8197
163 1 24.6475 60.7744 68.4528
164 1 29.0726 63.7634 68.3669
165 1 29.1316 61.025 69.5639
166 1 26.0763 63.1018 69.9965
167 4 31.8265 61.9576 67.0735
168 1 34.0331 60.7996 70.215
169 5 31.5144 62.9695 69.9369
170 4 33.8102 63.2486 68.334
171 4 31.6359 64.7589 67.5244
172 1 34.7241 60.5484 67.3216
173 1 36.4128 63.0479 66.9057
174 4 39.2088 63.0323 65.7928
175 2 37.9905 65.2904 66.9439
176 3 38.0638 63.8147 68.9451
177 3 36.0843 62.4642 69.5045
178 1 39.5133 61.7174 68.3823
179 1 35.8179 65.2951 68.9874
180 2 42.1551 64.7936 65.9476
181 1 42.0104 62.1744 66.596
182 1 40.469 64.5943 67.9102
183 3 41.93 62.86 69.3329
184 1 43.872 64.2151 68.0814
185 1 44.3489 61.6973 69.9442
186 1 45.0366 61.6031 67.1241
187 1 46.3677 64.2122 69.7391
188 2 17.8063 66.4347 66.196
189 1 17.1088 66.0966 68.9994
190 1 17.9634 69.3268 67.897
191 4 24.4872 65.42 68.631
192 1 19.7472 68.5009 65.3802
193 2 20.3806 65.8444 65.4926
194 1 22.8531 69.8422 65.9572
195 2 22.2354 67.2458 66.9477
196 1 22.0953 66.4228 69.6622
197 1 23.0039 69.4126 69.1419
198 1 19.7583 66.9414 67.9686
199 3 20.774 69.5848 67.6586
200 1 20.25 68.8219 70.2782
201 1 24.8772 67.9328 67.0087
202 1 27.4409 70.3106 66.7497
203 4 27.3488 65.6528 69.6429
204 2 27.2329 67.9228 68.2891
205 2 25.6279 69.8219 68.7054
206 1 29.4024 66.6272 67.3461
207 1 29.3318 69.17 69.2812
208 1 25.2342 67.5686 70.214
209 1 32.4639 70.2951 67.8274
210 1 30.1697 69.3391 66.0591
211 4 34.1342 65.4611 66.5768
212 5 34.4392 68.3761 66.4832
213 4 32.0203 67.4527 68.0477
214 1 34.5775 68.0743 69.3077
215 5 32.8584 65.6885 70.1099
216 1 37.2439 67.709 67.9042
217 3 36.6171 69.8461 66.4149
218 4 36.3218 66.5625 65.4699
219 1 38.9579 70.1001 67.6842
220 2 38.8608 66.0034 69.5581
221 1 36.7984 69.9587 69.9489
222 1 39.3789 68.5802 70.2172
223 2 39.8939 67.2492 67.4526
224 1 41.4219 68.6263 65.5865
225 1 42.8222 66.9093 67.4017
226 2 43.4546 69.6989 67.3605
227 1 44.5573 68.3904 65.3754
228 1 41.671 66.2338 70.0051
229 1 43.6988 68.5958 69.7946
230 3 41.3709 68.8926 68.562
231 3 44.4034 65.9885 70.0411
232 3 44.7532 65.6815 65.9025
233 1 45.7617 67.1207 68.0387
234 3 45.6772 69.9253 68.4267
235 1 19.4434 71.3047 65.9732
236 5 17.3275 72.467 67.5869
237 2 17.0464 71.1831 69.9257
238 2 18.273 73.97 69.7109
239 1 19.7726 74.1127 66.9553
240 2 21.8 72.3857 65.7377
241 3 23.7773 73.9674 66.1806
242 1 19.6813 71.6927 69.0703
243 3 20.9031 74.2232 69.3481
244 1 22.3582 72.3508 68.2467
245 1 24.9335 71.7847 66.9924
246 1 27.3719 73.692 67.5251
247 3 25.8543 75.2199 65.996
248 1 24.6544 74.4974 68.6985
249 3 27.4291 71.4697 69.0615
250 3 29.0984 72.5058 65.3941
251 1 24.6927 71.8958 70.1226
252 2 26.8895 73.4118 70.2725
253 1 29.8024 71.8136 67.9275
254 1 29.6543 74.0864 69.8295
255 5 32.0539 72.7362 66.3516
256 4 30.0154 74.6698 66.9538
257 1 33.8865 74.9586 65.7042
258 2 32.0747 72.9637 69.0911
259 1 34.6173 73.2986 68.0946
260 2 31.0419 71.0909 70.263
261 1 34.7964 71.6725 65.5697
262 3 37.0213 72.0145 67.6011
263 2 36.5027 74.0011 66.01
264 1 39.2674 73.2756 66.6599
265 3 35.0653 70.5602 68.0666
266 2 36.2641 72.4649 70.1253
267 1 39.0232 72.4574 69.604
268 1 37.2552 74.6439 68.6598
269 1 40.4632 75.1443 68.6509
270 3 43.2802 75.1738 68.0641
271 1 41.5445 71.4454 67.8439
272 2 40.2359 71.0324 65.5553
273 3 42.0492 73.6521 66.5689
274 2 43.7862 71.2788 69.7832
275 2 42.3038 73.2981 69.4931
276 1 44.3427 72.42 67.4686
277 5 45.1259 73.9906 69.7885
278 1 19.5294 76.407 69.2091
279 1 22.213 75.7342 67.5341
280 3 23.8293 79.2909 66.7268
281 1 23.8251 76.9386 65.4426
282 2 21.3457 78.2967 67.3082
283 3 23.3619 78.0542 68.7607
284 1 21.0465 78.7537 70.1481
285 1 27.8616 76.8561 66.9931
286 2 26.1161 78.5637 65.7656
287 5 28.1075 80.0504 66.8558
288 2 25.218 76.835 67.7333
289 1 27.2801 76.012 69.7164
290 1 25.8955 79.2352 68.5539
291 2 28.6025 78.6412 69.1398
292 4 32.755 80.2989 67.0343
293 3 29.9543 76.5549 68.8347
294 5 30.4227 78.5661 67.111
295 4 31.4775 76.5522 65.8663
296 3 33.391 77.7377 67.2957
297 1 32.4901 75.5347 68.4882
298 1 31.8908 78.3194 69.5522
299 3 35.048 76.0172 69.243
300 2 35.1598 79.4724 66.2826
301 2 38.4009 75.8485 66.7142
302 1 35.8938 76.8467 66.8111
303 1 37.6443 79.4724 67.3725
304 1 35.0103 78.8505 69.2222
305 3 37.4956 77.3123 68.8646
306 1 40.9422 75.9572 65.7948
307 2 39.6748 77.7564 67.4754
308 1 42.1872 77.687 68.4632
309 1 39.7379 77.6168 70.2593
310 1 40.3234 80.1394 68.8537
311 3 44.188 77.9429 70.1727
312 3 42.6841 80.059 70.2841
313 1 22.8416 80.6855 68.8014
314 1 27.8444 81.4669 70.065
315 3 25.2135 81.444 69.7596
316 1 33.034 81.2807 69.7579
317 5 30.328 80.9598 68.5994
318 4 35.7704 81.5419 68.2871
319 1 23.6052 53.5505 71.6963
320 1 21.0598 54.3812 73.5476
321 3 23.0394 52.5911 74.3598
322 1 25.0954 54.5103 74.0068
323 1 27.0932 54.7277 71.6119
324 2 26.0667 52.5413 70.5026
325 1 28.2097 51.723 72.484
326 1 25.4559 51.74 73.3711
327 2 27.6342 53.7828 74.2625
328 2 27.4917 51.2858 75.2915
329 1 29.9018 54.2492 72.8487
330 3 31.9396 53.9938 70.995
331 3 33.6567 52.2842 71.6822
332 2 31.0638 51.8526 72.1582
333 1 32.7076 53.8361 73.6754
334 1 30.1978 51.8763 74.7891
335 1 32.8722 50.7428 73.9485
336 1 34.5364 55.0825 71.7155
337 2 37.0146 54.2369 72.5606
338 3 36.0415 52.6316 71.0872
339 1 35.3669 52.3041 73.8955
340 1 38.1086 51.8248 72.9825
341 2 39.4883 54.3367 73.2974
342 1 38.8553 53.4626 70.6081
343 2 35.2409 54.8908 74.7077
344 1 37.6969 54.1442 75.3128
345 1 40.4328 52.2128 74.6952
346 2 42.3259 54.2301 74.1018
347 1 41.4712 55.0685 71.536
348 2 19.3255 56.1023 71.8279
349 1 18.1394 58.4327 72.9909
350 1 18.6213 55.8081 74.5504
351 1 20.4578 58.7079 71.0768
352 1 22.0122 56.0779 71.1714
353 1 23.0374 58.676 72.7041
354 3 20.6596 57.3605 73.6289
355 1 20.5351 60.0738 73.9148
356 4 22.9733 56.2988 73.9739
357 2 24.6768 56.2733 71.7989
358 2 25.7213 58.697 71.74
359 1 28.4607 59.0143 71.5436
360 3 29.0563 56.6616 72.406
361 2 24.6521 57.6247 75.2321
362 1 26.5735 56.9948 73.5127
363 2 28.4053 58.7672 74.1781
364 1 28.8085 56.1726 75.1145
365 1 26.021 60.0375 74.0231
366 2 31.7428 56.1441 72.0527
367 1 33.4973 58.1874 71.2708
368 3 30.8542 58.0468 70.7349
369 3 33.3194 59.5828 73.4444
370 1 30.9379 58.3116 73.5493
371 3 31.3695 55.9374 74.5742
372 1 33.7365 56.9178 73.8993
373 1 37.0729 56.6129 73.4479
374 2 36.0998 57.8018 70.9869
375 5 38.2066 58.9612 72.2687
376 2 35.6116 58.7564 73.1971
377 1 38.2146 59.4833 75.1115
378 3 38.8539 56.0106 71.5674
379 2 43.5116 56.8933 70.3649
380 3 43.282 59.3256 70.8204
381 3 39.635 60.1647 70.5291
382 2 40.4724 59.6713 73.3492
383 1 40.9748 57.9804 70.8755
384 1 42.9828 58.5519 73.2857
385 1 44.1055 55.8943 72.8505
386 1 40.2555 57.0005 73.6308
387 3 42.5995 56.6863 75.0931
388 2 44.5022 60.0515 75.0968
389 1 45.7425 57.6987 74.6054
390 1 45.668 58.6416 71.7192
391 1 17.0774 60.7423 74.4927
392 4 16.411 60.9881 71.5853
393 2 18.9931 60.9905 71.7023
394 1 18.0101 63.6175 71.0008
395 4 16.1995 63.3419 73.4117
396 2 15.9726 65.3326 75.1918
397 1 19.3526 62.7021 73.8104
398 1 20.8917 64.1767 71.8333
399 2 21.601 61.3561 71.8213
400 2 23.4491 60.489 74.6098
401 1 22.6299 62.8517 73.8351
402 1 24.3026 60.9973 71.5069
403 1 28.7529 63.4792 71.3895
404 2 25.1854 63.1083 72.8187
405 2 27.0024 61.4793 71.983
406 1 29.1589 61.2365 73.5069
407 3 26.5013 65.1747 72.1476
408 1 24.7129 65.2069 74.7152
409 1 27.4324 63.6299 74.2732
410 1 31.4069 60.561 71.6337
411 1 31.5881 63.346 72.8763
412 3 33.744 61.8048 73.0264
413 3 33.7122 64.8467 73.6066
414 3 31.655 60.9876 74.4758
415 1 34.3492 63.5739 71.2664
416 1 36.2027 61.1115 72.1436
417 2 38.205 62.0757 70.6624
418 1 37.2488 64.4613 71.5024
419 1 38.903 61.8215 73.1582
420 2 38.7871 64.3739 73.7881
421 1 35.3088 60.6113 75.033
422 1 36.0253 63.4824 74.0652
423 1 40.14 63.8738 71.0535
424 1 41.7068 61.355 71.6353
425 1 43.31 63.9958 71.4886
426 3 41.344 63.4189 73.5051
427 1 44.5261 62.8857 74.0726
428 4 42.315 61.1866 74.421
429 3 44.2982 60.7998 72.5052
430 2 46.8397 60.8031 70.3217
431 4 48.3992 62.779 71.6417
432 1 47.5797 63.6322 74.3029
433 1 46.783 60.7283 73.7349
434 2 45.9337 62.655 71.8975
435 1 45.7033 65.3351 72.6266
436 1 18.7038 65.5836 73.7309
437 1 16.3382 66.0252 72.0188
438 1 17.186 68.5909 70.7575
439 2 18.9184 68.4223 72.8104
440 1 16.8249 67.9373 74.3817
441 2 18.9508 66.3872 70.9711
442 3 16.6669 70.2273 72.8669
443 3 21.9701 65.3905 74.2258
444 1 23.7619 65.4121 71.9781
445 1 21.5174 69.678 73.1329
446 5 21.0056 66.9041 72.425
447 3 23.0312 68.0797 71.602
448 3 22.9276 67.5706 74.1765
449 3 24.2331 70.0469 71.8196
450 1 24.2448 70.0465 74.4598
451 1 20.2434 67.776 75.162
452 1 25.4312 67.7765 73.1505
453 1 28.0937 67.3879 71.7572
454 1 26.8822 69.9232 71.0768
455 2 27.3889 69.7621 73.7452
456 3 27.2948 66.3534 74.2848
457 4 29.5481 68.1251 74.5645
458 1 29.6364 65.4665 73.3649
459 1 29.8871 69.7208 72.3186
460 4 30.1994 66.0811 70.3105
461 1 32.1144 67.0688 72.8523
462 5 32.0435 68.6741 70.5324
463 1 32.6968 70.3074 73.0558
464 1 34.5875 68.026 74.3859
465 3 34.6718 69.011 71.7877
466 1 35.0153 66.408 71.9475
467 3 37.0375 67.2373 70.5813
468 1 37.2106 68.6905 72.7929
469 2 36.7475 66.1811 74.0789
470 1 38.8328 67.66 75.0774
471 2 36.4759 69.701 75.2973
472 1 39.3051 66.575 72.3326
473 2 39.9815 69.2759 73.0265
474 3 41.6904 65.684 72.6666
475 3 41.635 68.2569 71.5704
476 3 43.6839 67.0073 72.1118
477 1 43.724 69.7989 72.4454
478 1 40.7407 65.4388 75.2778
479 1 41.9876 67.904 74.1468
480 5 43.5405 65.487 74.5453
481 2 48.1519 65.5899 71.5977
482 1 46.28 67.8237 71.0405
483 2 46.9076 69.3726 73.2011
484 4 45.052 67.8855 74.2547
485 1 47.7441 66.7751 74.239
486 1 18.6422 70.5001 74.8586
487 1 19.0498 71.0214 71.8825
488 1 16.9399 73.0275 71.9713
489 3 16.0379 74.7967 73.8534
490 1 18.5578 73.7948 74.5411
491 1 15.9652 72.0981 74.6612
492 2 21.791 71.2409 70.8703
493 1 23.1131 72.3484 73.0607
494 1 20.1481 73.8243 71.7866
495 3 22.7166 73.5928 70.7435
496 2 20.5404 72.1527 73.819
497 1 22.3995 75.2402 73.2384
498 1 25.0024 74.6557 71.7181
499 2 28.2333 74.1858 72.1498
500 2 28.7504 71.8774 71.1609
501 1 26.1807 72.1725 72.8279
502 2 24.702 74.1493 74.447
503 3 27.1677 74.116 74.4498
504 1 29.0297 72.0868 74.0559
505 1 29.7425 75.2343 74.0829
506 1 33.8446 74.038 70.9507
507 1 33.8115 71.1493 70.3801
508 1 31.2181 72.9617 72.1613
509 3 33.8293 72.8446 73.3707
510 1 31.9215 72.8957 75.2262
511 1 32.6031 75.2899 73.6137
512 2 38.8163 75.185 70.8936
513 1 35.83 71.3119 72.6675
514 3 36.3602 74.5877 71.0793
515 2 38.668 70.877 71.7449
516 1 38.0148 73.3086 72.6992
517 1 35.5357 75.0784 73.4726
518 1 38.5918 71.0891 74.5249
519 1 41.34 70.791 70.7579
520 1 41.4637 71.6419 73.6523
521 5 43.6282 72.9731 71.8864
522 4 40.7266 73.5885 71.6325
523 3 42.2512 74.3925 73.5543
524 1 39.9231 74.1206 75.0038
525 1 46.1672 71.0127 70.9413
526 1 46.896 73.7287 72.2353
527 3 48.0411 71.5347 73.7636
528 1 44.7817 74.69 74.3914
529 1 45.3437 71.8028 73.7718
530 1 47.4769 73.6819 75.3258
531 1 17.8957 75.8682 72.0299
532 2 19.0628 78.4657 72.5512
533 1 17.4365 76.8968 74.8841
534 2 19.9102 76.1046 74.1381
535 2 24.2226 77.124 72.6673
536 1 22.6152 76.211 70.4126
537 2 20.4427 76.548 71.7771
538 1 21.9041 78.3823 73.1866
539 1 23.9397 79.448 71.1544
540 1 19.7797 78.8594 75.2347
541 2 25.0899 77.1607 70.3469
542 1 26.8726 76.3991 73.0453
543 1 26.9936 78.8959 71.3443
544 1 28.5893 78.7524 74.1788
545 1 25.465 79.1265 73.9055
546 1 29.4278 76.9121 71.5038
547 3 31.5828 75.5589 71.0628
548 1 31.4707 77.9806 73.3938
549 2 32.8042 79.6732 71.8101
550 1 33.8193 77.0279 71.3994
551 5 30.0218 79.6931 71.1552
552 5 33.7465 80.262 74.5168
553 3 34.1609 77.5491 73.994
554 1 36.8442 77.0696 71.3877
555 3 38.1042 75.7719 73.493
556 1 35.4086 79.4859 72.3834
557 2 38.7162 78.4593 72.7436
558 1 37.6898 79.8896 70.3582
559 1 36.7543 77.7668 74.5073
560 1 39.0747 79.8765 74.9933
561 2 36.3732 80.267 75.3557
562 3 39.4127 77.1529 75.0956
563 1 42.7005 75.6467 70.7639
564 1 44.2268 79.1828 72.6139
565 1 40.5323 76.31 72.8586
566 2 41.9874 78.1409 71.5452
567 2 43.224 76.7028 73.251
568 1 41.7425 78.7539 74.3142
569 3 44.0189 80.2734 75.1797
570 1 40.4222 80.3486 71.9193
571 1 45.43 76.308 71.8641
572 2 47.15 76.2075 74.0706
573 1 44.9623 77.6564 75.1799
574 2 21.2397 80.8164 71.8817
575 1 23.3401 81.1229 73.6126
576 2 23.3933 82.3479 71.1917
577 3 25.8694 81.2758 72.1899
578 3 28.3127 80.8802 72.7143
579 1 25.0784 83.3996 73.6881
580 1 28.0024 83.3755 73.0349
581 4 25.9931 83.6464 70.9131
582 2 26.625 81.3297 74.6675
583 2 30.6184 83.7755 73.8857
584 1 30.4833 82.6096 71.1779
585 1 33.406 82.4037 72.5762
586 1 31.0019 80.9336 73.5043
587 2 33.4923 84.5978 74.2611
588 5 35.8475 83.8846 72.4615
589 2 35.5712 81.7147 70.8814
590 4 38.7581 82.5903 70.797
591 1 37.418 81.4824 73.1031
592 1 35.346 82.7284 75.1904
593 3 37.7272 83.9391 74.285
594 3 42.4842 81.2155 73.4201
595 1 40.1146 82.55 73.9841
596 2 20.1957 53.7668 76.1741
597 1 21.2836 54.8295 78.6026
598 2 24.2436 54.4983 78.5475
599 1 22.9532 54.5849 76.1346
600 2 22.6266 52.4768 77.8673
601 1 25.1711 52.5605 76.4342
602 4 27.9335 53.4992 76.7124
603 2 27.1647 51.4435 78.1226
604 1 26.7646 54.1124 79.2402
605 5 24.8087 52.0077 79.4226
606 2 29.5329 53.7586 79.0564
607 1 30.965 50.953 79.7285
608 2 29.6747 51.7499 77.5001
609 1 31.9062 50.3515 76.8502
610 2 32.8142 52.6305 75.9594
611 1 30.5474 54.2666 76.4798
612 1 32.3508 53.2132 78.5477
613 3 33.731 50.9191 78.6519
614 1 33.7006 55.2091 80.3151
615 3 34.6565 50.6097 76.1922
616 1 35.2591 53.0825 76.9015
617 1 37.6017 51.242 76.0454
618 1 37.5782 53.2276 78.828
619 1 36.3567 50.6249 78.7213
620 3 39.5103 52.9085 77.0391
621 3 38.4302 55.3204 77.571
622 2 34.9408 52.9565 79.5223
623 1 39.8007 51.4405 79.2763
624 1 40.5031 55.0989 75.8391
625 1 42.3473 53.0552 76.8888
626 2 43.2002 53.7019 79.3928
627 1 40.5568 54.3506 79.0541
628 1 44.5535 55.0652 75.8366
629 1 18.5948 55.9048 77.5703
630 1 18.9985 58.4309 75.9904
631 2 16.4398 59.2056 76.7252
632 1 18.0063 58.5136 79.0912
633 2 19.9706 59.9481 78.0282
634 2 20.8631 56.2133 75.9951
635 2 20.7513 57.5174 78.1946
636 1 22.0527 58.5277 75.8542
637 2 22.3893 59.4462 78.3697
638 1 23.5659 56.9563 77.8644
639 3 22.3784 56.6855 80.2649
640 1 24.4077 58.8354 79.9869
641 1 26.0204 55.5947 76.5949
642 1 24.7873 59.6691 76.9371
643 1 27.287 58.3358 76.5408
644 3 28.5684 55.9128 77.858
645 2 26.7561 59.7262 78.9022
646 2 26.4059 57.0955 78.8865
647 1 29.0211 58.347 78.9451
648 1 33.2764 55.3917 76.5022
649 1 29.971 59.6348 76.1464
650 2 30.7983 57.1645 76.7376
651 1 32.8528 58.9188 75.9737
652 4 33.433 57.3862 78.3071
653 1 31.6831 59.4537 78.9739
654 1 31.0668 56.1046 79.201
655 2 38.4894 56.9247 75.7388
656 4 35.2947 58.7607 78.9936
657 1 35.7519 57.7174 76.0005
658 3 37.6541 57.8339 77.898
659 2 36.6097 60.2068 77.4048
660 1 35.9026 55.739 78.2589
661 1 37.7255 58.8831 80.3202
662 1 39.2376 60.1296 77.9187
663 1 38.3364 56.0233 80.2026
664 2 42.515 55.7853 77.4338
665 1 40.2387 57.2361 77.9628
666 1 44.0506 58.0372 77.0943
667 1 41.3125 58.9664 75.9127
668 1 42.2115 59.3078 79.1121
669 5 42.3486 56.4508 79.8559
670 3 44.4176 57.9623 80.1073
671 3 44.8089 60.0907 78.6314
672 1 46.8036 59.7403 76.7417
673 2 46.7002 57.0141 77.2358
674 1 46.9251 58.7675 79.6168
675 1 44.954 55.6682 78.7994
676 2 15.0288 62.3381 79.3063
677 1 15.2573 62.2757 76.4043
678 1 17.3735 61.3023 78.2725
679 1 16.1301 64.7002 78.4042
680 1 17.7738 63.5628 76.225
681 3 18.9942 64.9382 78.3443
682 2 19.2024 61.0111 80.295
683 1 18.14 63.4709 80.2919
684 2 19.09 61.1877 76.1008
685 3 19.6782 62.6264 78.1068
686 1 20.5004 64.4718 76.1011
687 1 21.6732 61.5068 76.5182
688 3 23.0704 63.7169 76.4096
689 1 23.8077 61.7709 78.5959
690 1 21.8053 64.1372 78.8029
691 3 21.3647 61.4735 79.3806
692 1 25.0198 64.4135 78.1565
693 1 25.1881 62.3992 75.6926
694 3 26.3535 61.9141 78.0251
695 1 28.9674 61.417 78.1824
696 3 27.6342 61.1654 75.8765
697 3 27.5831 63.7045 76.9667
698 1 27.7198 63.6109 79.7001
699 1 33.3504 62.736 75.5037
700 1 31.8272 65.2645 75.4408
701 2 30.0548 64.1391 78.2477
702 1 30.028 62.9149 75.7759
703 2 31.7704 61.4213 77.1779
704 1 32.7515 63.7824 78.3771
705 3 34.1295 60.7115 77.4023
706 3 31.1639 62.0264 79.5081
707 1 33.8718 61.2794 79.8773
708 1 35.5961 63.0188 77.5436
709 2 37.4713 62.0546 75.8668
710 2 38.6665 62.9039 78.1372
711 1 37.8751 64.8236 76.2822
712 2 34.8687 63.8693 80.185
713 1 36.9318 61.6115 79.7599
714 1 37.2643 65.0596 79.228
715 3 43.103 60.7802 76.9919
716 1 40.0648 62.2497 75.7903
717 4 42.6255 63.3385 76.1462
718 1 41.3845 62.1238 78.5199
719 1 44.2578 62.5517 79.4942
720 4 40.7026 64.8189 77.9425
721 3 42.1048 64.1195 80.2003
722 5 43.802 64.9375 77.8936
723 1 45.3768 62.3019 76.7702
724 1 48.2757 62.4876 77.0742
725 1 46.4972 64.5775 78.6376
726 3 45.7623 64.8701 75.8135
727 2 48.3524 65.2244 76.5851
728 2 46.8183 61.5399 79.2472
729 1 48.7868 63.381 79.9975
730 3 15.7589 69.8083 76.022
731 1 15.4574 69.7328 78.8833
732 1 15.4955 67.3243 77.064
733 2 18.1472 66.3232 76.3821
734 3 17.8497 68.7823 76.8351
735 1 17.7399 67.2255 79.017
736 2 18.1808 69.8425 79.2266
737 4 14.9576 66.9355 80.3398
738 1 20.1351 69.9749 77.4472
739 1 20.5327 67.0634 77.9964
740 5 22.8902 66.2187 76.782
741 3 22.4172 68.7416 76.4001
742 3 19.9394 68.5945 80.1675
743 5 22.4006 69.0265 79.1113
744 2 22.7982 66.434 79.7778
745 1 24.562 69.9868 77.3068
746 3 24.71 67.6878 75.8302
747 1 24.9498 67.3978 78.5868
748 1 29.1243 65.8596 76.3399
749 3 26.4173 65.8789 76.53
750 1 27.14 68.4284 76.0654
751 1 27.7211 66.4341 78.7885
752 1 27.2706 69.6157 78.7374
753 2 24.8037 69.7261 80.0395
754 3 29.0748 68.208 80.22
755 4 30.9661 70.2489 75.3988
756 1 29.9587 68.4574 77.6596
757 2 32.0637 67.9875 75.5222
758 1 32.2968 66.6717 77.9248
759 3 34.0684 68.3941 76.9978
760 1 32.5156 70.2726 78.101
761 3 30.2935 66.1717 79.6464
762 3 31.6728 68.3987 79.7814
763 1 34.4361 68.4845 79.6917
764 1 34.7113 65.5233 76.0648
765 2 34.8016 65.9524 78.7737
766 2 38.9396 66.8874 77.9056
767 1 36.5024 67.5446 77.1398
768 1 38.6886 69.642 77.1948
769 1 37.4684 68.4022 79.989
770 1 43.4198 70.3356 75.5686
771 4 39.8482 65.9919 80.0543
772 3 40.9196 67.7163 76.953
773 1 43.4828 67.4958 76.727
774 3 40.7378 69.667 75.4741
775 3 42.1083 69.6898 77.7816
776 1 40.2856 69.0665 79.5629
777 1 42.3621 66.8952 79.4267
778 1 43.2513 69.5978 80.2419
779 1 46.3992 67.2042 76.9075
780 1 47.541 69.6508 78.7128
781 1 48.6542 66.8083 78.9319
782 2 48.8437 68.4078 76.3892
783 1 46.5121 70.0469 75.8644
784 3 44.7722 69.535 77.8621
785 1 45.4899 67.5888 79.7093
786 3 14.6435 71.8581 77.0947
787 1 17.2956 71.5879 77.4202
788 1 16.4058 74.4051 76.5796
789 1 15.2107 73.3257 79.2646
790 1 18.2735 74.0471 79.0048
791 2 19.6006 72.6592 76.8854
792 3 20.9348 74.1853 78.4154
793 2 21.8338 70.9673 75.528
794 1 21.5809 73.8027 75.6291
795 1 22.3065 71.8864 78.0364
796 2 23.98 72.473 76.0115
797 1 23.4908 74.9194 77.6296
798 1 20.0923 71.9284 79.9376
799 1 22.8931 73.9561 80.393
800 1 25.04 72.2993 79.0165
801 3 28.7538 70.5843 76.5605
802 3 27.655 72.192 78.2451
803 1 26.5316 71.5886 75.7435
804 1 26.1915 74.2059 76.9714
805 4 28.8576 73.8336 76.5002
806 1 29.0662 73.7748 79.8764
807 1 26.2806 74.7826 80.0047
808 4 33.8698 70.6246 75.5744
809 1 29.9745 70.6154 80.0392
810 4 33.4421 75.0541 78.9929
811 2 33.6091 72.7395 77.4454
812 4 30.422 72.1441 77.6433
813 1 31.2589 75.0057 77.2127
814 3 34.3319 71.7372 79.7146
815 1 31.9642 72.8878 79.988
816 1 34.2454 75.1375 76.1902
817 1 35.8097 72.6345 75.3693
818 1 35.8511 70.5454 77.8449
819 1 36.1277 73.4799 78.5371
820 3 38.0325 72.4807 76.7079
821 4 39.2629 73.7057 78.5126
822 1 37.2912 75.2236 76.1644
823 2 38.3464 71.4421 78.9972
824 2 42.8784 73.1193 75.5849
825 1 40.7376 71.8503 76.8257
826 1 43.479 72.0429 78.2069
827 2 41.8184 74.1987 77.6735
828 1 44.6023 74.7549 77.4578
829 1 41.0097 71.9612 79.8601
830 2 42.794 74.2374 79.9734
831 3 45.2145 72.3978 76.2758
832 1 47.0812 72.6497 78.0738
833 1 49.0733 71.2493 76.3432
834 3 45.2669 73.5527 79.8135
835 3 45.4515 71.1018 79.5258
836 5 47.42 75.0617 79.6351
837 4 49.5983 71.6017 79.3307
838 1 19.3144 75.8952 76.9666
839 2 16.3722 76.1429 78.6525
840 1 18.561 76.8532 80.1213
841 4 18.1243 78.4681 77.6862
842 1 21.9036 76.7919 75.8354
843 1 23.7344 78.1427 77.9482
844 1 21.406 76.6466 79.2783
845 3 21.0796 78.5922 77.547
846 3 24.1316 76.322 79.8541
847 2 23.1575 79.2313 75.5969
848 5 20.3211 79.3739 79.9996
849 3 25.0906 80.2143 78.9916
850 1 24.7796 76.6132 75.3619
851 3 25.9223 76.6125 77.9707
852 1 26.3455 79.0446 76.7674
853 5 27.6245 76.4838 75.8452
854 1 28.7093 76.5526 78.5402
855 4 28.8867 79.5783 79.664
856 4 29.1127 79.1335 77.1101
857 1 26.327 78.0642 80.1763
858 2 30.9957 75.5983 79.9058
859 4 31.5768 79.5238 75.9993
860 3 32.4862 77.0075 75.7357
861 1 31.782 77.7484 78.3141
862 4 34.1883 79.1792 79.2488
863 2 30.124 77.1423 75.927
864 4 31.9459 80.2014 80.11
865 1 34.5873 78.4195 76.5447
866 2 37.7866 75.7103 79.2666
867 1 37.7677 78.1892 77.3364
868 5 35.5348 76.5567 78.4254
869 1 39.5237 77.866 79.8743
870 1 36.6229 78.4359 80.3491
871 3 39.3526 80.3353 77.5641
872 1 42.295 76.1387 75.7265
873 1 39.8317 76.0463 77.4481
874 3 40.6482 78.436 76.8329
875 2 43.0517 78.7582 76.9125
876 1 41.5946 79.7035 79.0241
877 1 42.3402 76.7508 78.7144
878 1 44.3334 79.2288 80.108
879 5 47.0452 76.2353 76.9154
880 1 44.737 76.1643 80.3475
881 3 44.7888 77.3261 77.9189
882 1 45.5915 79.7115 77.3536
883 1 46.9334 77.9232 79.4177
884 3 19.7788 80.5894 77.6215
885 4 21.4077 81.3321 75.7045
886 1 22.4498 80.8039 78.4928
887 1 24.5641 81.5608 76.4154
888 1 27.3941 81.6055 77.9638
889 1 24.9093 82.9354 79.0985
890 1 26.9108 83.8193 75.9961
891 2 29.3347 82.7494 79.5477
892 1 29.0813 81.6732 75.4556
893 5 27.3715 84.4897 78.8797
894 1 32.2274 82.6452 75.7268
895 1 32.0887 83.2295 79.3184
896 4 30.6528 81.1671 77.9394
897 4 33.6151 81.1465 77.5527
898 1 29.82 84.0272 77.0811
899 4 32.6079 85.1207 77.1244
900 4 30.0573 85.4297 79.7106
901 2 38.5113 80.4802 79.728
902 1 34.8225 81.8288 80.3179
903 4 35.0263 83.775 78.0139
904 1 36.4572 80.7736 77.9981
905 1 38.3151 82.5517 76.5133
906 1 37.5401 83.1469 79.6339
907 1 40.4207 82.4349 78.8997
908 1 41.6122 81.1626 76.2417
909 2 43.5622 81.4214 78.2375
910 1 22.989 53.8976 80.848
911 1 23.9801 55.1813 83.776
912 4 28.3082 51.8555 80.5295
913 4 25.6936 53.2966 81.9992
914 4 28.3382 53.415 82.7474
915 4 26.7879 53.8167 85.341
916 4 31.7468 51.2319 85.3594
917 4 29.8211 53.3566 85.038
918 5 30.5658 51.2754 82.6136
919 1 33.352 51.8187 81.2971
920 1 31.0049 53.8722 81.3506
921 4 32.2177 55.0548 84.9594
922 2 32.2783 53.0084 83.594
923 2 34.4148 51.261 83.7511
924 1 34.6704 54.0706 82.9876
925 2 36.279 54.4916 80.836
926 1 36.5604 51.8855 81.5644
927 2 38.8948 53.3816 81.2505
928 1 37.6357 54.9925 83.1062
929 1 36.8809 52.4034 84.5463
930 2 35.9048 54.8164 85.2845
931 1 39.8514 53.1903 83.9234
932 1 41.6083 52.7526 81.4217
933 3 42.3972 53.99 83.7717
934 1 43.8551 55.069 81.7586
935 3 18.3746 59.1876 81.6737
936 1 17.7674 59.9519 84.1888
937 1 19.511 56.3053 80.4917
938 1 21.3637 56.0118 85.1203
939 2 21.4083 55.4755 82.3409
940 1 19.6721 57.5605 83.2406
941 1 22.7512 57.8298 82.7286
942 1 20.8793 58.9337 80.5619
943 1 23.4745 60.331 84.4135
944 2 21.3742 58.7712 85.1957
945 1 28.5046 55.8728 80.7795
946 1 24.9632 56.1125 80.9555
947 2 25.0898 59.1478 82.5893
948 1 26.8193 56.1286 83.2678
949 5 27.2263 58.461 81.3017
950 3 28.6289 58.2264 83.5862
951 2 26.2468 58.3631 84.5813
952 2 33.2984 58.1683 80.8275
953 5 29.8106 55.734 83.4653
954 1 30.5167 58.2202 81.6709
955 4 32.4878 56.288 82.5995
956 1 33.1292 59.348 83.2657
957 1 34.4447 56.9338 84.7181
958 1 31.1319 57.9034 84.9403
959 2 30.1857 60.2826 83.6657
960 1 35.7052 57.0027 81.8495
961 2 35.4004 59.7106 81.4281
962 1 38.8938 57.9856 82.8577
963 1 36.1841 59.2242 83.9373
964 3 37.2742 56.9795 84.815
965 3 38.5341 59.4021 85.2235
966 3 40.2276 57.9178 80.5101
967 3 39.6812 56.0375 84.4702
968 1 40.7282 55.5561 82.0829
969 1 42.3014 58.3418 82.0371
970 3 42.6046 56.4431 83.8998
971 1 41.046 58.3371 85.0128
972 3 40.6339 60.1277 83.0303
973 1 43.2565 60.3474 84.0783
974 1 45.0167 57.5865 82.8566
975 4 46.6938 56.2486 80.9895
976 5 46.6068 59.5468 84.1542
977 1 45.0033 60.2705 81.4112
978 1 16.4897 61.042 81.303
979 1 15.5303 64.1041 81.5009
980 2 18.6233 62.0208 82.5283
981 1 16.5717 62.899 83.9765
982 2 19.2196 62.2541 84.9888
983 1 19.0293 64.6083 83.2806
984 1 20.9017 63.0516 81.4528
985 1 20.5754 60.4551 83.2894
986 1 22.9526 60.8831 81.4845
987 2 23.8318 63.4151 80.6624
988 2 21.9612 62.8189 83.8847
989 4 23.1997 64.8885 84.9927
990 1 22.8434 65.2961 82.2505
991 1 24.6552 62.6953 83.2478
992 1 27.2741 60.6582 83.4253
993 1 25.959 61.4634 80.8047
994 3 29.2785 62.6337 83.2339
995 1 29.0548 60.9057 81.0676
996 3 27.1423 63.4971 82.351
997 1 28.2316 64.9544 84.4149
998 4 26.7459 62.7502 85.1449
999 3 25.4075 65.1454 83.4905
1000 2 34.3419 60.5968 85.3502
1001 1 30.3109 63.8347 81.1249
1002 2 31.7418 60.7979 81.5385
1003 3 32.8012 63.1825 81.3258
1004 1 32.0168 62.3737 83.7632
1005 2 34.0126 64.635 83.0307
1006 1 31.2772 65.1963 83.6283
1007 3 34.4126 63.0736 85.134
1008 1 34.7791 61.8923 82.7741
1009 1 38.2169 61.0275 82.6162