# LAMMPS data file written by OVITO Pro 3.7.7
1985 atoms
5 atom types
0.0 250.0 xlo xhi
0.0 90.51 ylo yhi
0.0 181.02 zlo zhi

Atoms  # atomic

1 1 39.8015 52.7271 75.1389
2 2 42.1699 54.0843 74.7561
3 4 42.7419 51.4005 74.9375
4 1 47.7352 53.5519 74.802
5 5 39.5159 58.4655 72.35
6 2 38.0668 56.7258 74.4138
7 1 42.6813 58.0486 72.3607
8 1 43.7293 56.2713 74.4889
9 1 40.6859 56.1436 73.6055
10 2 45.9912 55.1624 73.3726
11 1 48.5198 56.4421 74.0895
12 1 45.97 58.0627 73.3456
13 1 51.235 55.1154 74.5957
14 4 53.2971 57.8303 74.1065
15 2 50.7005 57.8025 72.8689
16 1 34.3813 61.9164 74.7633
17 1 38.8956 61.24 73.0768
18 1 36.4793 59.8082 74.5389
19 1 36.8352 63.2723 74.0294
20 2 41.2808 59.803 73.7774
21 1 44.4548 60.4507 71.9
22 1 41.5028 60.7106 71.3051
23 1 43.4969 63.279 71.1874
24 3 40.9645 62.9987 72.5065
25 2 43.8853 59.3219 74.5346
26 4 42.8239 61.7747 73.8785
27 1 44.7475 63.7433 73.7508
28 3 47.2128 60.0937 71.8699
29 1 46.1802 61.2097 74.2262
30 3 48.5307 62.0348 72.9173
31 2 46.3692 62.6245 71.7653
32 4 50.187 60.4227 71.7443
33 1 48.6951 59.4556 74.0611
34 2 47.3242 63.6435 74.6238
35 1 51.6456 60.3157 74.2893
36 1 51.2173 63.0679 72.8887
37 1 54.0087 62.1568 73.4821
38 1 35.2033 65.8162 75.1294
39 1 40.1362 67.0394 72.2183
40 2 39.135 64.5618 73.3129
41 2 37.4801 66.5242 73.7128
42 1 39.7178 67.3362 75.0715
43 3 41.7027 65.1713 71.3326
44 3 43.7898 65.9092 70.193
45 3 42.5528 67.7591 71.2308
46 3 43.7931 65.9491 72.6642
47 1 41.7051 65.0547 74.0409
48 1 42.6089 68.0692 73.8983
49 1 45.1487 68.1836 72.0233
50 1 46.0922 65.2881 71.2656
51 1 48.7344 64.7266 72.687
52 2 48.3072 67.3454 71.9051
53 1 46.3162 66.1409 74.0242
54 1 48.9372 66.9323 75.0329
55 2 47.2686 68.6551 73.7059
56 1 51.1203 66.6548 73.0771
57 1 53.319 65.053 74.4044
58 2 50.4882 64.6474 74.9302
59 1 53.1946 68.1417 74.8411
60 1 35.9138 68.8131 74.2655
61 2 38.495 69.03 73.0514
62 1 39.0471 71.6684 73.7301
63 1 36.224 71.8593 74.7241
64 1 41.1567 69.9618 72.2312
65 1 42.0225 72.4187 73.7804
66 3 40.6724 69.8319 74.847
67 4 45.3248 68.7452 75.1964
68 1 44.8242 70.991 73.377
69 1 49.914 69.4177 73.4933
70 3 47.5782 70.8702 72.7761
71 1 47.2693 73.013 74.3818
72 2 49.8004 72.0782 74.3371
73 1 52.2868 70.969 74.7214
74 1 39.5332 74.1618 75.1801
75 1 44.6116 74.2046 74.3454
76 1 42.2802 48.6828 78.9219
77 5 46.6876 49.1922 78.6972
78 1 34.8776 53.2802 77.8282
79 1 37.5527 51.5047 76.7878
80 3 39.6916 52.87 77.8512
81 1 37.4761 53.3936 79.1616
82 1 35.9182 50.8033 79.3427
83 1 38.9161 50.5453 79.3651
84 1 40.7563 50.469 76.9794
85 2 43.8386 50.478 77.3482
86 1 42.3661 53.0286 77.2965
87 4 44.9711 52.4747 78.5214
88 1 44.3518 50.2651 80.2059
89 1 41.6912 51.5157 79.819
90 1 44.8214 53.5008 75.6736
91 3 50.1429 52.7768 75.6268
92 2 47.1043 54.0482 77.6073
93 1 46.9433 51.4732 76.7344
94 1 49.6444 53.0854 78.1978
95 4 49.5129 50.3139 77.2224
96 5 47.4678 51.7246 79.6403
97 1 49.6269 49.8053 80.1527
98 3 51.6321 51.258 78.4622
99 2 53.9118 51.7349 79.4208
100 1 52.6494 53.1009 76.5637
101 2 52.2135 53.792 79.0427
102 1 54.9999 53.991 78.3861
103 4 33.0629 56.7438 77.4928
104 4 35.1131 58.8474 78.4766
105 1 33.2444 54.9106 79.7333
106 2 33.7737 57.625 80.0826
107 1 35.7273 57.2312 75.9414
108 1 40.0838 55.3485 76.3486
109 1 37.2692 54.5466 76.2985
110 3 38.6635 55.7345 78.7059
111 3 38.159 57.1743 76.9477
112 1 35.9623 56.0691 78.7543
113 1 37.916 58.3071 79.5572
114 3 40.1975 57.0598 80.3258
115 3 41.7025 57.7903 75.3405
116 2 44.5657 55.0163 78.1481
117 1 40.9817 54.7057 79.2632
118 2 42.6089 55.7248 76.9112
119 1 40.6739 57.7868 77.8652
120 1 43.8882 58.076 77.0002
121 5 42.9872 56.737 79.5057
122 3 49.0777 55.0842 76.3779
123 1 46.2608 56.1082 76.13
124 2 48.556 57.4685 76.7932
125 1 48.6985 55.9804 78.947
126 1 46.4025 54.409 80.1867
127 1 46.0231 57.2211 79.008
128 5 50.7744 57.834 75.5377
129 1 50.7057 58.3075 78.5428
130 3 52.8407 58.3403 76.9341
131 1 51.3784 55.6905 77.4502
132 1 54.1355 56.0874 76.3009
133 1 53.5021 56.7702 79.3058
134 3 54.8992 58.7593 78.0356
135 3 58.9018 57.8433 78.2503
136 1 56.9043 58.5086 76.217
137 1 56.4534 56.5485 78.2854
138 1 57.7782 54.3713 80.0325
139 1 29.0825 61.172 80.1755
140 1 33.5896 59.2906 76.0717
141 1 31.9268 59.4543 78.8847
142 2 32.9623 61.6893 77.074
143 3 35.4194 60.9154 77.0559
144 3 30.8971 62.0027 78.3583
145 1 34.1217 61.3435 79.557
146 1 35.7011 63.4395 77.1346
147 1 39.256 59.0283 75.3119
148 2 37.2131 59.3711 77.1525
149 1 39.4772 60.5597 77.9782
150 2 37.7085 61.7359 76.1455
151 2 38.7807 63.2469 78.1153
152 1 40.1776 62.6022 75.3198
153 1 37.0603 61.5874 79.3177
154 1 41.9502 60.3318 76.2559
155 3 45.2941 59.9349 78.5081
156 1 42.5551 59.8498 79.067
157 3 44.5031 61.025 76.4024
158 1 41.5583 62.6973 78.1708
159 1 44.4842 62.4925 78.7963
160 4 43.2059 63.3063 76.0495
161 1 49.485 62.1813 75.3642
162 1 46.5652 59.1101 76.2437
163 2 49.3028 59.8281 76.6705
164 1 46.9885 62.0163 77.0763
165 3 49.3786 61.7494 78.1889
166 1 47.9004 59.5351 79.0729
167 2 47.632 62.1753 79.7708
168 1 50.4157 60.7315 80.3665
169 2 52.3725 62.7488 75.5453
170 1 54.41 60.1896 75.6898
171 1 51.7746 60.8696 77.3242
172 1 54.5463 61.5533 78.3306
173 2 52.9673 59.5975 79.3773
174 3 52.1466 62.7132 79.4731
175 2 54.3432 63.8009 79.9835
176 1 50.6983 63.8328 77.5591
177 1 59.3754 60.6333 77.6765
178 1 55.7957 63.3153 75.6385
179 1 57.2391 63.0059 78.4388
180 3 56.8489 61.0823 76.6422
181 1 57.0749 59.7838 79.0638
182 3 58.9069 61.6861 80.2162
183 1 60.0894 59.1931 80.3346
184 3 59.9023 63.1835 78.3844
185 3 29.4967 68.5648 79.7529
186 2 30.4907 64.576 77.5152
187 3 30.6722 66.3686 79.4171
188 1 30.423 63.8893 80.2637
189 1 32.7937 64.2329 75.762
190 2 35.2498 63.9331 80.0702
191 1 32.9116 63.8857 78.6048
192 2 34.734 65.7947 77.8659
193 1 32.3391 66.8314 77.3315
194 3 34.4759 68.2231 76.5185
195 3 31.9911 68.4742 79.3863
196 1 34.7857 68.0499 79.1807
197 1 38.2797 64.8713 76.0288
198 1 37.2097 65.4732 78.8731
199 2 39.4771 66.89 78.1601
200 1 37.1019 67.541 76.7083
201 4 40.1448 64.8905 79.5973
202 1 37.6078 68.5934 79.586
203 5 43.8719 66.1791 75.5891
204 4 41.1564 65.3005 76.8921
205 5 43.7671 65.2192 78.1722
206 3 41.8106 67.8801 76.6389
207 1 44.1229 68.1822 77.8643
208 3 42.6735 63.8519 80.3345
209 1 41.9413 67.0773 79.5445
210 1 46.6676 64.5348 78.9339
211 3 45.6239 64.2357 76.3678
212 2 48.3348 64.6565 76.5829
213 1 46.5567 66.7567 76.9248
214 1 49.1544 66.2398 78.76
215 1 46.5354 68.1106 79.6346
216 2 48.6484 68.4201 77.2493
217 1 53.6694 64.2989 77.3411
218 3 53.2197 68.1521 80.0134
219 1 51.4224 66.5292 76.6046
220 1 52.2484 65.6826 79.5302
221 2 53.7454 67.1859 77.7051
222 1 50.8847 68.6003 78.9248
223 1 55.6541 66.4825 75.9269
224 3 57.8009 65.0938 76.8491
225 1 55.9065 65.6786 78.8534
226 2 58.9983 65.4348 79.1387
227 1 57.9969 67.7622 77.8153
228 3 59.8985 67.7379 79.7114
229 1 33.2132 70.4303 78.1674
230 4 33.6833 70.4174 75.3076
231 2 34.5594 72.5924 76.9683
232 3 35.4959 70.5728 79.8799
233 1 33.4387 72.6826 80.1427
234 2 38.1088 69.79 75.3642
235 1 39.6345 69.3507 77.3632
236 1 36.2133 70.3138 77.3153
237 1 36.3882 72.8687 78.9966
238 3 38.131 72.0182 76.5105
239 2 38.6197 71.2866 78.8732
240 1 40.3434 69.5092 80.2421
241 1 43.117 70.2944 75.8295
242 2 43.0512 73.0651 76.1142
243 3 42.078 69.8952 78.2913
244 1 40.7549 71.8988 76.6444
245 1 43.8727 71.89 78.3126
246 3 45.2771 71.9222 75.8542
247 1 41.2439 72.2539 79.6317
248 1 47.8485 70.4153 75.6267
249 3 45.8583 71.0831 79.6445
250 1 48.2877 70.4372 78.8673
251 3 45.9125 70.0678 77.4547
252 1 47.0415 72.7916 77.5889
253 1 50.3374 71.499 77.0203
254 2 50.7429 69.037 76.0214
255 4 50.7136 71.1961 80.1703
256 1 53.0849 69.9166 77.4732
257 4 54.4352 72.2601 76.3127
258 4 52.564 72.8594 78.3361
259 4 53.3384 70.918 80.3454
260 1 55.5098 68.8273 78.95
261 4 55.4682 71.9239 78.9532
262 4 55.691 69.4746 76.0179
263 2 57.5282 70.5988 77.8164
264 5 57.9975 72.9834 79.8222
265 2 59.8492 70.1901 79.1094
266 4 34.5357 75.0593 78.3415
267 1 36.819 74.3726 76.4576
268 4 39.1048 73.7529 78.2022
269 2 37.4997 75.7564 79.0149
270 1 39.7308 76.3455 77.2614
271 1 39.5955 77.9506 79.7574
272 5 40.544 75.3037 80.0456
273 1 42.1336 75.5363 75.3931
274 2 41.7046 74.3244 77.7879
275 1 44.574 74.7259 77.5593
276 1 42.6132 77.0126 78.0947
277 3 44.4763 76.8008 75.842
278 2 43.0219 74.2905 79.9534
279 3 45.5486 73.545 79.8111
280 1 44.733 76.2093 80.2675
281 1 49.8166 73.8976 78.9252
282 5 46.8778 75.4267 75.955
283 1 49.1825 76.5804 77.25
284 3 49.3811 76.4803 79.8391
285 5 47.2841 75.2428 79.1619
286 3 49.1474 73.9223 76.2726
287 1 46.1285 77.5785 77.9226
288 4 51.7273 73.8002 75.63
289 4 54.789 74.7318 78.3625
290 1 51.9928 75.8013 77.8027
291 2 54.1143 76.9117 79.9437
292 1 51.1093 78.3419 79.3105
293 1 44.3315 79.0529 79.9281
294 3 48.4293 78.6707 78.9745
295 1 38.956 47.953 83.3577
296 4 40.0531 47.9379 80.6462
297 2 37.385 49.0408 81.0743
298 2 45.0696 47.576 80.4404
299 2 43.5996 45.7594 83.1595
300 3 41.5458 47.3955 83.3882
301 3 42.6825 47.0821 81.1261
302 1 44.1149 48.3655 83.1161
303 4 45.2659 45.4977 85.2668
304 1 46.4468 46.5492 82.7577
305 1 49.0006 48.3415 83.1286
306 2 46.4503 48.6408 84.6025
307 1 48.1446 46.6082 85.3984
308 5 48.1311 47.3176 80.4548
309 3 50.9548 47.6698 81.3373
310 3 51.4132 47.265 83.8147
311 1 53.7788 48.3629 82.9331
312 4 30.0499 53.9609 84.5933
313 2 34.0179 52.364 80.4999
314 1 34.6621 49.8011 84.7875
315 1 34.2721 52.5471 83.2365
316 1 31.8448 53.8004 82.0532
317 2 34.966 50.1936 81.9517
318 2 32.3458 51.5926 84.9509
319 2 37.1 49.9049 83.3544
320 1 37.0722 52.1201 81.8332
321 2 39.6057 52.9416 80.8201
322 1 39.2396 53.1771 83.7351
323 1 36.617 51.9431 84.9818
324 1 39.8732 50.5619 82.2404
325 1 39.2103 50.4323 85.0974
326 3 42.1138 49.4041 81.6122
327 1 43.5388 51.2194 83.0093
328 1 43.4808 53.7558 80.6383
329 3 41.5524 52.7823 82.3964
330 2 41.6989 49.6389 84.3269
331 5 41.7347 52.3184 85.1591
332 1 43.8524 54.077 83.6731
333 3 48.9504 53.8305 80.6538
334 2 45.6778 52.2136 81.6568
335 3 49.0573 50.4893 84.6743
336 1 46.6491 49.5167 81.8073
337 1 48.6073 51.6535 82.3526
338 1 46.3319 51.3848 84.3047
339 4 46.8412 54.0253 83.1043
340 1 52.6793 49.5541 80.4072
341 2 51.2751 49.7879 82.8331
342 1 53.0084 50.0819 85.1144
343 1 51.1674 52.3027 80.9637
344 1 53.6625 51.6401 82.3765
345 1 51.1157 52.0861 84.1316
346 1 53.8863 52.9701 85.0531
347 4 53.7234 54.1211 80.9158
348 1 55.7708 50.0048 81.3678
349 3 55.875 52.6296 80.7708
350 2 55.616 50.8456 84.0464
351 1 57.7337 52.023 82.6945
352 2 59.18 53.2846 84.8406
353 3 56.6411 52.9204 85.1613
354 1 58.0679 50.6295 85.4633
355 1 55.6822 54.1369 83.0205
356 3 28.7074 58.6065 83.7212
357 5 30.4485 56.3704 83.155
358 1 31.1476 56.9478 80.3907
359 4 32.8452 54.6841 84.6161
360 4 33.2507 56.3143 82.367
361 1 34.3652 57.0737 84.8222
362 1 31.5569 58.546 84.719
363 2 35.5505 54.3042 80.9969
364 1 36.294 54.7424 83.6376
365 1 38.3275 55.2556 81.3353
366 1 35.948 57.0304 81.6844
367 3 38.9959 55.8016 83.8839
368 1 38.904 58.05 82.5053
369 3 37.0851 57.1128 84.4831
370 1 41.3138 55.4376 82.1813
371 1 44.7804 56.3383 81.8273
372 1 42.0708 58.2664 81.8208
373 3 43.2162 56.7154 84.0366
374 3 44.4586 58.7304 80.5726
375 1 41.1742 58.3547 84.6531
376 5 41.2045 55.1513 84.9466
377 4 49.7225 54.2259 83.0658
378 3 49.5056 58.1314 80.8293
379 1 48.097 56.272 81.9332
380 4 47.0207 58.7831 81.8682
381 4 48.7515 55.9234 84.8208
382 1 49.6093 58.962 83.4146
383 4 46.2402 56.9644 84.3566
384 1 51.0717 55.6593 80.73
385 2 52.3436 54.2046 83.0697
386 1 53.6652 56.4138 82.6351
387 2 50.8461 56.5322 83.264
388 1 52.0407 58.6036 81.7263
389 3 54.2754 58.7178 83.7326
390 2 54.4659 55.5724 85.0608
391 1 52.3265 57.5819 85.1935
392 1 55.0609 58.7615 81.0127
393 1 58.4766 55.0607 82.8101
394 2 55.677 55.8759 80.8977
395 1 56.5705 57.3419 83.3648
396 5 57.7493 57.3701 80.6485
397 1 59.2902 57.6664 85.2272
398 2 59.3052 57.7827 82.6382
399 1 60.3496 56.2023 80.7037
400 1 61.1502 55.8004 83.7569
401 1 61.8426 58.7147 83.104
402 1 30.455 59.4004 81.9635
403 1 27.8647 61.1916 83.0564
404 3 30.0373 62.5041 82.4708
405 3 27.8901 63.3641 81.1724
406 2 30.1622 60.807 84.3387
407 4 26.1653 61.634 85.4287
408 1 33.3856 59.4074 82.0596
409 2 31.7338 61.4523 80.7713
410 3 33.0183 63.4069 81.2169
411 1 32.4099 61.9735 83.4172
412 1 35.245 62.1361 82.342
413 2 33.9094 60.1652 84.8118
414 3 34.399 62.8948 84.9341
415 2 40.1222 59.6627 80.4795
416 2 35.9318 59.6791 80.8805
417 1 36.0409 59.3176 83.5332
418 1 38.1455 60.9385 82.2533
419 2 39.0634 63.332 83.6327
420 1 40.2235 62.3451 80.761
421 3 38.5406 59.3661 84.8135
422 1 36.9853 61.7053 85.0182
423 1 40.0544 61.4769 85.4354
424 3 40.6191 60.3402 82.9772
425 1 37.7137 63.8433 81.3448
426 1 44.5147 59.1027 83.3244
427 1 42.8214 61.1869 81.5746
428 3 41.3328 62.6853 83.1683
429 1 43.9168 63.6341 82.7209
430 1 42.9102 61.1263 84.6878
431 2 45.4802 61.7095 83.6915
432 1 49.7032 63.7205 80.4681
433 5 47.017 59.833 84.7848
434 1 48.1373 61.5341 82.44
435 1 45.6189 61.0479 81.0174
436 2 46.4432 63.6068 81.58
437 2 47.2559 62.7144 85.0478
438 1 49.5643 61.4066 85.1488
439 1 52.3439 60.4245 84.2148
440 2 50.8343 61.9639 82.6796
441 1 53.3675 61.382 81.4615
442 3 54.0581 62.5967 83.8629
443 1 51.815 63.3045 85.115
444 3 55.3652 60.659 83.1691
445 3 59.3129 62.2408 82.6296
446 1 57.716 60.0133 82.0349
447 4 56.0743 61.9104 80.8496
448 1 56.9674 62.6726 83.8155
449 1 59.348 62.0883 85.4306
450 1 57.2642 59.8562 85.06
451 2 59.6745 60.0602 83.6561
452 1 60.7307 63.6919 80.8824
453 1 61.8988 61.7465 84.0357
454 3 61.227 61.1321 81.58
455 1 28.3709 64.3263 83.6104
456 1 26.9813 66.9631 84.4614
457 1 28.5998 66.137 81.1774
458 3 29.461 66.8588 83.6334
459 1 33.1143 66.0435 80.5212
460 2 34.1677 64.7062 82.8701
461 1 31.3731 64.9759 82.8919
462 1 31.1235 67.8162 81.8173
463 2 33.7205 67.3491 82.9708
464 1 31.7226 67.4897 84.8568
465 1 34.0427 65.5761 85.3908
466 1 36.6032 64.5174 84.0928
467 1 35.9442 66.3333 81.5393
468 4 38.8679 66.607 81.2697
469 5 39.0828 66.073 84.0749
470 1 36.1509 67.4403 84.4611
471 1 41.4001 65.2431 82.2743
472 1 44.5326 65.8909 80.8651
473 2 41.0472 67.8372 82.0215
474 2 43.8523 66.0105 84.0677
475 2 43.35 67.8173 82.5283
476 1 41.5522 67.6759 84.606
477 1 41.6289 64.3744 85.1497
478 2 44.066 68.5511 85.1769
479 1 46.4119 65.0336 83.902
480 1 49.2754 64.1511 83.4511
481 1 45.9761 67.7676 82.6166
482 5 47.769 65.8738 81.2838
483 2 48.4362 66.9448 83.5397
484 5 46.4967 67.5676 85.4018
485 1 50.3541 68.2443 84.6783
486 1 52.3752 64.132 82.131
487 2 55.2302 63.951 82.2218
488 1 50.6754 66.5749 81.8521
489 1 54.5306 66.4095 81.5074
490 2 52.8056 67.445 83.3431
491 1 54.0067 65.2393 84.3655
492 3 51.2359 65.7717 84.4282
493 2 55.104 67.8233 84.4791
494 2 59.7512 66.1303 81.7505
495 1 57.8003 64.1617 81.2157
496 5 59.6925 64.5489 83.7867
497 1 57.4413 67.1869 80.8549
498 2 57.2322 68.5526 83.1089
499 1 56.8325 65.8015 83.6322
500 3 59.0459 67.1749 83.9075
501 1 62.5022 64.4649 83.1668
502 4 62.013 66.3464 80.5248
503 1 61.7869 67.3329 83.3133
504 1 30.8133 70.8794 80.6418
505 1 28.4166 69.0088 82.2308
506 2 28.8572 71.6453 82.9842
507 1 28.8777 69.1118 85.1943
508 1 33.4219 69.6601 81.3272
509 1 34.1111 69.8561 84.3236
510 1 31.1605 70.2593 83.5963
511 2 33.2279 71.8866 82.7898
512 2 32.4176 72.1879 85.1613
513 1 35.6873 72.5058 85.0553
514 1 31.0664 73.3647 82.6592
515 1 38.4796 73.4573 81.0384
516 5 36.0732 69.1575 82.1207
517 1 35.7569 72.123 82.096
518 1 38.8525 69.0212 82.9805
519 2 37.8572 70.7996 81.1129
520 1 38.3821 72.0047 83.7006
521 3 40.0926 71.5245 81.8746
522 2 36.8162 70.0468 84.6154
523 4 40.2463 70.2295 85.2923
524 1 43.7233 69.5079 80.5132
525 5 44.7265 70.201 83.4104
526 1 42.0054 70.3418 83.0375
527 1 44.088 72.2897 81.5209
528 1 43.9061 73.2266 84.3795
529 4 40.9534 72.7456 84.9738
530 2 46.6269 70.1988 81.6178
531 1 48.9767 68.8866 81.4051
532 1 47.7461 69.8252 84.0371
533 3 46.3554 72.1606 83.2125
534 1 47.8623 72.5493 80.965
535 1 48.7115 73.1934 83.9393
536 2 51.8606 69.1105 81.8027
537 1 50.51 70.8828 83.284
538 1 54.8672 69.2947 82.0323
539 1 53.1774 69.9353 84.4749
540 4 50.8422 73.24 81.7201
541 4 53.2104 72.4535 83.0555
542 1 59.7022 68.97 82.0564
543 1 57.5803 70.1779 80.5564
544 1 56.3176 70.4259 84.595
545 1 60.2059 71.8721 81.3615
546 1 56.0678 72.1646 82.014
547 3 58.3662 71.1752 83.1022
548 1 59.6091 69.7019 85.0099
549 1 57.5327 73.1357 85.0334
550 2 61.9435 69.2306 80.6362
551 1 62.0937 70.3591 83.2234
552 1 60.407 72.5943 84.385
553 1 33.8351 74.3408 83.6565
554 1 35.5573 75.0158 81.0429
555 2 32.8251 75.2009 81.1721
556 3 32.0291 76.2983 83.296
557 1 35.0319 77.1219 83.2267
558 1 31.0455 74.7026 85.3547
559 2 35.7294 75.3188 85.4591
560 5 36.3584 77.9014 80.6659
561 5 38.1983 76.1718 81.6033
562 2 36.8375 74.4209 83.346
563 3 39.3805 74.6678 83.45
564 1 37.8133 76.8686 84.3479
565 1 41.5376 73.7497 82.3116
566 1 40.697 76.9161 82.8719
567 2 41.8265 75.2158 85.0185
568 5 43.4354 75.8138 82.8254
569 2 42.2635 77.1337 80.7373
570 1 42.6222 78.0207 84.9992
571 1 44.8956 76.0845 85.2918
572 1 47.1866 77.5978 81.0646
573 2 48.7709 75.0428 81.717
574 1 46.0895 74.6828 82.3571
575 5 47.9504 76.035 84.1126
576 1 50.0037 77.4987 82.2301
577 3 45.7871 77.433 83.2563
578 3 46.4462 73.9338 85.0174
579 1 51.7607 75.6804 80.6924
580 4 53.7704 73.6579 80.7189
581 1 51.0415 75.218 83.7605
582 1 53.887 75.9332 82.7373
583 3 52.1935 77.6277 84.2172
584 2 53.3981 74.6562 85.0355
585 1 54.6571 77.4668 85.2791
586 2 55.3269 73.9018 83.7676
587 1 56.2635 75.08 81.0446
588 3 58.341 73.7189 82.5109
589 2 55.5192 78.0367 82.4428
590 1 57.0191 75.9892 83.7331
591 3 59.4595 75.0969 84.7808
592 2 34.1034 79.3746 85.1285
593 2 38.5047 78.77 82.1735
594 1 36.7222 79.5651 84.1646
595 1 40.0125 79.5476 84.3006
596 2 43.677 78.4285 82.5038
597 1 41.4096 79.6078 81.4452
598 1 42.9213 80.8643 83.673
599 3 43.7023 81.257 81.2064
600 3 45.2715 81.7357 84.8847
601 2 44.9189 79.2886 84.8149
602 1 40.8236 82.2766 85.3743
603 3 48.0343 78.6735 83.4454
604 1 45.9232 80.1055 82.4413
605 2 48.9219 79.9003 81.3355
606 1 47.9196 81.0348 84.6163
607 1 50.6361 79.9489 83.7187
608 1 52.7599 78.6037 81.7608
609 4 53.7951 80.019 84.0776
610 2 35.5899 47.9213 90.4015
611 1 33.3708 49.2449 89.5802
612 1 35.636 49.1935 87.7468
613 2 37.1873 48.675 85.5728
614 1 39.4806 45.4518 89.7827
615 1 37.7653 47.0945 87.898
616 1 40.1224 48.5436 89.4946
617 1 40.0469 47.5875 86.0747
618 3 37.9626 47.472 90.4745
619 4 36.3629 45.448 89.7937
620 1 42.9693 47.1505 85.8258
621 2 43.2669 48.4492 88.3124
622 3 41.4207 46.6366 88.2505
623 1 43.8847 45.7421 88.6153
624 4 45.3529 47.9809 90.3093
625 4 46.9266 44.7249 87.3116
626 1 49.4109 45.005 88.8954
627 1 45.7969 47.6662 87.281
628 3 48.6463 47.3841 87.9037
629 4 46.7734 46.0078 89.5979
630 1 50.4612 48.5433 85.9662
631 1 53.1174 47.1634 85.9306
632 3 50.5502 45.8738 86.4524
633 2 51.8173 49.1114 90.4917
634 4 54.6608 46.9931 88.4639
635 1 51.5601 47.05 88.6862
636 2 55.434 48.7063 85.4876
637 1 56.8177 48.8591 87.935
638 2 30.4948 53.0075 89.3923
639 3 32.9499 49.4807 86.8528
640 3 31.9265 51.1856 88.3971
641 3 33.1545 53.38 89.3029
642 3 34.9749 51.4428 89.5914
643 1 31.7403 53.4675 86.9542
644 1 34.2051 51.8658 87.0921
645 2 35.0698 54.1019 86.0006
646 1 37.3443 50.0259 90.2027
647 2 38.6098 49.6786 87.6053
648 1 37.1279 51.8409 87.8232
649 3 39.6648 52.3283 86.8237
650 3 38.5482 53.8507 88.8068
651 1 39.8459 51.6345 89.4166
652 2 42.1883 50.3581 89.8429
653 1 41.4325 50.019 87.1264
654 1 44.1665 49.8872 85.8013
655 1 44.9857 50.5909 88.5628
656 2 44.2538 52.5687 85.9482
657 1 42.6527 52.5277 88.1801
658 1 45.4295 53.7472 88.5031
659 1 41.1881 54.0944 90.5443
660 1 48.6759 53.0659 85.6677
661 1 47.7893 49.72 86.7786
662 2 47.3605 49.4039 89.4386
663 2 46.5081 52.0206 86.8787
664 4 48.3761 51.9429 88.6925
665 2 50.0213 49.3669 88.6308
666 1 50.2916 54.0336 88.407
667 1 53.0586 49.6188 88.0226
668 1 55.0334 49.7017 90.1843
669 1 51.8215 51.7804 89.9125
670 1 50.717 51.3345 86.9842
671 3 52.7652 52.9239 87.4122
672 3 54.34 52.1249 89.0587
673 3 56.7224 51.4434 89.2321
674 1 58.0388 52.94 87.4889
675 1 55.4292 51.1707 86.8676
676 2 58.9192 50.4443 88.0845
677 4 55.9527 53.9926 90.1981
678 1 60.7208 52.1477 86.9724
679 1 60.6642 54.0015 89.3461
680 3 60.256 51.4025 89.9008
681 1 28.9828 54.3409 87.3721
682 1 28.9343 56.8124 85.6788
683 3 28.369 56.7863 88.2887
684 5 28.5335 54.7248 90.3182
685 1 30.5077 58.5021 87.8518
686 2 31.4503 56.2683 86.2637
687 1 30.9635 55.7272 89.064
688 1 33.6116 55.6888 87.6976
689 3 32.5794 57.683 89.665
690 1 33.4299 58.6109 87.2261
691 1 35.5731 57.3754 89.3467
692 3 33.512 55.5734 90.4414
693 1 35.822 54.2746 88.8825
694 1 37.9081 54.3831 86.2289
695 2 38.0584 58.3771 90.1868
696 3 36.1193 56.2711 86.7637
697 1 39.0572 57.0421 86.2804
698 3 37.8601 56.2803 88.4939
699 1 36.3476 58.8639 86.4858
700 1 40.325 56.9841 89.3949
701 1 40.6797 54.6404 87.6123
702 3 42.9973 55.2136 89.0443
703 1 43.5902 55.2548 86.5005
704 2 41.6843 57.1061 87.0081
705 1 44.1554 58.2148 86.2015
706 1 43.1578 57.866 89.1893
707 2 45.5007 56.4508 88.2181
708 5 46.1438 54.4966 85.6804
709 1 47.7299 54.8709 90.1922
710 4 47.9842 55.5488 87.3848
711 4 49.12 58.0598 86.0751
712 1 48.4389 57.7547 89.2004
713 2 46.7642 58.0807 86.8079
714 1 51.5015 54.7665 85.7258
715 1 55.2511 57.8798 86.0929
716 1 53.0487 54.6213 89.5407
717 2 53.4374 56.1844 87.354
718 1 51.0087 57.0226 87.9776
719 1 52.7479 57.5803 90.4844
720 1 55.2958 54.2339 87.4289
721 1 57.363 55.4602 85.6715
722 1 55.431 56.9619 89.1471
723 3 60.0424 57.3645 87.742
724 1 58.1252 55.5665 88.7782
725 2 57.5417 57.7331 87.3637
726 1 57.9531 58.6314 90.0197
727 5 60.3176 55.0645 86.5588
728 1 60.2948 56.8878 90.3225
729 1 62.2448 57.5668 86.0203
730 1 62.5756 56.2236 88.5803
731 1 28.9855 62.6731 85.9299
732 3 27.9024 59.2902 88.7643
733 1 28.3555 59.7561 86.1414
734 1 26.9871 62.0309 88.3477
735 4 29.7348 61.3284 88.5677
736 1 28.8739 63.5568 90.4253
737 1 33.883 59.9102 89.8815
738 1 31.8128 61.166 86.4712
739 4 32.2835 62.0443 89.3393
740 1 34.7806 61.3703 87.1007
741 5 35.4829 62.3346 89.6238
742 5 31.0117 59.7844 90.5484
743 1 38.8707 59.5423 87.6785
744 3 36.3691 59.8946 88.9231
745 2 40.5027 59.6117 89.694
746 2 37.5241 61.8859 87.6211
747 1 40.3215 62.3429 88.4467
748 1 38.2134 61.2615 90.2037
749 1 42.127 63.8031 90.4722
750 1 41.8358 59.8153 87.2986
751 1 44.5293 63.6255 85.6617
752 1 43.3356 61.1148 89.6081
753 3 42.6812 62.3302 87.1247
754 1 45.1657 61.0028 86.8752
755 1 45.7843 59.0296 89.153
756 1 48.0926 60.547 87.5612
757 3 46.1369 61.7989 89.3796
758 1 47.2612 63.4661 87.5918
759 2 48.9538 62.5219 89.3994
760 3 49.8604 63.1304 87.0579
761 2 48.0523 60.2433 90.3257
762 2 51.0138 59.5504 86.4433
763 1 53.3152 59.1319 87.9716
764 1 50.6617 60.1775 89.029
765 3 52.1818 61.5784 87.0444
766 1 54.3017 61.8732 88.8291
767 1 51.5805 63.1517 89.0988
768 1 54.6413 61.0175 85.916
769 2 55.5974 63.5927 85.8341
770 2 56.1185 59.7566 88.019
771 1 59.0336 59.9812 87.5592
772 2 59.2436 62.9368 87.9378
773 1 57.4504 61.5722 89.6916
774 2 57.0334 61.947 86.9816
775 3 60.0782 61.4143 89.6663
776 3 60.9092 59.7382 85.6644
777 2 63.4995 60.0646 85.4733
778 2 63.8724 62.7947 85.8486
779 1 63.7552 59.2595 88.1248
780 2 61.1856 59.1133 88.9492
781 2 62.4429 61.0029 90.1314
782 1 61.7781 61.4011 87.4247
783 3 64.1399 62.0055 88.5438
784 1 61.7017 63.6463 89.4111
785 2 25.964 64.5981 88.8915
786 2 29.9736 68.1514 87.3385
787 3 28.2736 64.5025 88.0219
788 1 26.519 64.4858 86.0927
789 5 29.4513 65.8439 86.0574
790 1 29.6919 66.3234 89.4227
791 1 27.2204 67.0955 87.6349
792 4 30.7411 63.8864 87.8757
793 4 31.7244 63.9628 85.4786
794 3 33.4333 67.2181 90.0003
795 5 33.6701 63.9486 87.8659
796 1 32.2006 66.6391 87.7119
797 3 34.0243 68.141 86.2979
798 1 35.2637 66.3979 88.0772
799 1 31.991 64.7186 90.2542
800 2 38.5284 68.2485 85.5645
801 2 36.039 63.9203 86.6988
802 1 38.8695 64.0336 86.3813
803 1 37.4078 64.2738 89.0256
804 3 39.9477 65.0418 89.1568
805 3 37.3972 66.1945 86.4872
806 1 38.2389 67.1575 88.9665
807 1 40.2725 66.6132 86.9793
808 2 40.3528 68.6048 89.6895
809 1 36.0495 68.2984 90.4492
810 1 44.4744 63.9339 88.654
811 2 41.9094 64.5019 87.7949
812 1 42.1375 66.6743 89.5149
813 2 45.0362 66.6555 89.038
814 1 43.5289 66.3764 86.7311
815 5 49.4978 65.1673 88.9934
816 1 46.8965 65.147 90.1319
817 3 45.9843 65.551 86.8133
818 1 48.7116 65.6146 85.9839
819 3 47.5443 66.836 88.1112
820 5 50.1647 67.6176 87.5746
821 1 50.3117 67.5887 90.4749
822 1 53.5821 64.3848 87.314
823 3 53.9109 64.4875 90.0879
824 3 51.1488 65.2415 86.9051
825 3 52.1521 66.0614 89.0326
826 1 52.8746 67.232 86.2439
827 1 54.911 66.8931 88.8078
828 1 56.3354 64.1534 88.554
829 1 58.0932 64.845 86.2019
830 3 59.9676 65.2902 88.0565
831 1 58.8269 64.1443 90.3514
832 3 55.5972 66.0847 86.3783
833 1 57.9349 66.7489 88.868
834 1 57.4591 67.9353 86.108
835 2 59.8706 68.4767 87.5999
836 1 63.5554 66.1041 85.4871
837 1 61.4835 64.073 86.2174
838 5 60.4552 66.6909 85.8648
839 1 64.1608 64.5894 88.0287
840 1 63.6908 66.5147 90.3392
841 1 60.7498 66.6803 90.1573
842 2 62.1872 66.4303 87.8487
843 1 29.5519 72.0542 85.6905
844 2 26.5561 69.0198 90.4508
845 2 28.6389 68.7397 89.2561
846 1 27.3461 70.1903 87.476
847 2 27.2733 71.9211 89.7226
848 1 29.8409 71.2381 88.5867
849 1 31.3479 68.897 89.732
850 3 33.9551 69.0897 88.5639
851 1 31.8759 69.9357 86.66
852 2 34.4745 70.92 86.8109
853 1 32.7934 71.6139 88.943
854 1 35.6844 71.3958 89.1934
855 3 31.3331 73.1254 87.4382
856 1 36.4344 68.9476 87.2263
857 3 39.4789 69.2249 87.5177
858 1 38.298 70.3415 89.562
859 1 37.8612 71.4178 86.7965
860 2 38.6546 73.2924 88.7383
861 2 43.0724 70.9031 85.6934
862 1 43.9826 68.7372 90.499
863 1 45.3839 68.8452 87.6731
864 1 45.3797 73.3288 90.5261
865 1 42.221 68.9682 87.4043
866 1 44.0109 71.3225 88.4221
867 1 40.748 71.7197 87.7993
868 3 42.7512 73.2654 86.832
869 2 41.9869 70.3329 89.6851
870 1 45.8728 71.2849 85.7903
871 1 47.6375 68.7819 89.8744
872 2 48.0538 69.0068 86.9179
873 1 50.0228 70.3497 88.9002
874 1 49.2226 71.2253 86.1555
875 2 47.9686 73.3737 86.8836
876 1 47.0805 71.3949 88.448
877 1 51.6244 72.7673 85.5577
878 1 54.6432 72.2901 85.9944
879 1 50.5252 73.3054 88.2966
880 1 52.6297 68.8298 88.7683
881 2 51.4531 69.8066 86.4954
882 5 54.8165 69.3359 86.8819
883 3 52.7287 71.4253 87.6533
884 1 55.2174 71.4742 88.918
885 1 52.474 71.5706 90.2455
886 3 54.4879 69.4896 90.4561
887 1 59.1252 69.4365 89.954
888 2 56.5767 69.1011 88.8361
889 1 57.7936 70.913 87.2914
890 1 58.6427 72.5975 89.8937
891 2 56.7681 73.5174 87.8398
892 1 62.3954 68.9067 85.9776
893 4 63.0218 71.7327 85.6411
894 4 60.6824 71.2484 87.4372
895 1 62.3254 68.934 88.9031
896 2 63.2028 71.5716 88.3265
897 1 61.486 71.3395 90.4316
898 1 29.1301 74.0977 88.4961
899 1 33.2546 76.7344 85.675
900 1 33.7777 73.7573 86.8303
901 1 34.1966 74.0633 89.8557
902 3 31.3781 73.6083 90.0429
903 1 31.8998 75.7249 88.3544
904 5 34.9237 76.109 87.9409
905 1 34.5121 77.2746 90.4719
906 3 31.8531 77.9011 89.9415
907 1 38.3869 74.1021 85.7725
908 5 40.1064 77.0834 85.938
909 2 36.3599 73.7528 87.8903
910 1 37.1233 75.8335 90.1092
911 3 35.8033 77.8225 86.085
912 5 37.5548 76.1938 87.2496
913 2 36.4599 78.2002 88.6189
914 1 39.4298 77.5038 88.7602
915 1 40.5561 74.8454 87.6299
916 1 42.5747 73.6563 89.6284
917 1 45.2825 73.8256 87.4611
918 4 43.176 75.8163 87.5304
919 4 42.2336 76.694 89.9877
920 2 42.0045 78.1028 87.7107
921 1 44.7768 78.1963 87.6556
922 3 45.3699 75.8992 89.195
923 5 44.7014 78.1738 90.5652
924 3 49.6849 74.8166 86.0133
925 1 49.8464 77.634 85.5538
926 1 47.9698 74.4739 89.4327
927 5 47.5155 77.9245 88.9915
928 2 49.5632 76.2372 88.089
929 5 47.2585 75.8673 86.9681
930 1 47.0721 78.3689 85.8275
931 1 53.6165 74.0258 88.2718
932 5 51.6786 75.725 89.5958
933 1 52.0379 76.1167 86.6979
934 4 53.5134 77.6903 88.4752
935 1 57.8382 76.4753 86.5257
936 4 59.2473 73.6938 87.1682
937 4 55.5162 75.0261 86.2752
938 1 58.4059 75.5762 89.3853
939 4 55.7296 76.309 88.6429
940 1 55.9584 73.8984 90.4445
941 3 61.7081 73.7934 86.5549
942 4 60.571 76.196 87.4325
943 1 61.2834 74.0107 89.2686
944 1 33.6864 78.7365 87.9241
945 1 34.9871 80.252 90.2442
946 3 38.1053 78.7623 86.5203
947 1 38.0936 80.1328 89.4775
948 3 36.4121 82.3124 89.1579
949 1 36.1021 80.468 87.1131
950 1 38.6796 82.5969 87.7656
951 3 38.2913 81.1543 85.6147
952 1 40.2979 80.1153 87.3188
953 1 39.9694 82.2977 90.4875
954 1 43.2493 80.6884 86.5791
955 4 44.5714 82.9527 88.1862
956 4 40.9919 79.5045 90.1086
957 4 43.2511 80.3116 89.3425
958 4 41.7354 82.8596 88.1644
959 2 49.1118 79.8528 86.8615
960 4 48.6131 82.6486 87.2047
961 4 45.5834 81.0998 90.2071
962 1 46.3296 80.8233 87.3108
963 4 47.126 83.2122 89.7599
964 1 48.5707 80.6975 89.403
965 1 52.2088 79.4198 86.41
966 3 50.5539 81.5792 85.7614
967 5 53.3343 80.4281 89.1582
968 1 50.6041 78.5835 88.8298
969 3 50.9643 81.238 88.1893
970 4 55.4675 79.2787 87.4028
971 4 57.8656 78.4202 88.8321
972 3 32.6466 48.9638 92.1696
973 4 34.9999 47.4763 92.8999
974 1 37.8437 48.5366 92.8432
975 1 37.6272 45.675 92.3553
976 1 39.5888 46.6261 94.6418
977 2 40.1642 44.6059 92.4906
978 2 40.0604 47.1185 91.8618
979 4 36.6744 46.687 95.0725
980 2 38.6945 49.1837 95.2759
981 3 41.9933 45.2366 90.599
982 1 42.5993 47.7987 90.8916
983 1 44.605 45.3053 91.5673
984 1 42.3227 46.0697 93.3124
985 1 41.1893 48.9531 93.4682
986 1 44.2572 48.6734 93.5526
987 2 42.4722 47.946 95.6469
988 1 44.7268 46.15 95.0867
989 1 49.0664 47.5789 90.5816
990 1 47.6077 45.4827 94.9059
991 1 48.0791 45.024 91.9519
992 3 46.8245 48.1598 94.9142
993 3 48.5396 47.3831 93.1305
994 1 49.394 47.7764 95.6034
995 3 46.209 46.851 92.8476
996 3 50.1836 45.6898 93.9125
997 1 53.919 47.7941 94.1877
998 1 51.1673 48.0913 92.9148
999 1 53.637 47.1541 91.2123
1000 1 51.097 45.5133 91.3611
1001 3 55.9212 48.4978 92.3825
1002 1 56.4771 49.0788 95.0375
1003 4 29.8887 53.1945 94.4535
1004 5 29.4343 52.3622 91.7525
1005 5 34.9365 50.1864 91.9857
1006 4 33.4233 50.1953 94.5224
1007 1 34.6673 53.124 91.6441
1008 4 32.5399 52.8124 93.8679
1009 1 32.24 51.4726 91.0834