# LAMMPS data file written by OVITO Pro 3.7.7
1742 atoms
5 atom types
0.0 250.0 xlo xhi
0.0 90.51 ylo yhi
0.0 181.02 zlo zhi

Atoms  # atomic

1 1 57.4482 58.1729 76.7706
2 4 58.3039 55.4838 77.2266
3 4 60.3809 57.4309 76.5081
4 4 65.6478 59.3079 75.7065
5 5 62.442 59.4321 76.6571
6 1 50.4834 63.8593 77.7734
7 1 52.3475 61.5298 77.4567
8 1 55.265 62.576 75.8502
9 3 56.6645 60.6188 76.9637
10 1 59.6014 60.255 77.5144
11 1 58.3883 62.1632 75.4744
12 1 61.4977 62.2781 75.7964
13 4 60.1173 59.8416 74.7208
14 2 60.1725 63.8785 73.8343
15 2 64.0386 63.6888 74.8284
16 4 63.7722 61.0462 74.4721
17 1 66.7004 62.0603 75.3905
18 4 64.3664 61.7203 77.0319
19 2 69.5233 63.1515 74.4159
20 1 68.7194 64.1808 76.7458
21 1 69.2179 61.1066 76.6483
22 5 71.7081 59.8823 77.6058
23 4 73.8485 64.2016 77.3886
24 1 52.1303 66.4894 76.6551
25 2 49.9639 67.9219 77.325
26 1 54.3918 65.3903 74.9451
27 1 53.906 68.4341 74.9684
28 2 55.2064 67.0454 76.9939
29 1 56.8434 67.4247 74.8139
30 1 57.1427 64.4919 73.9999
31 3 56.4884 64.9274 76.6363
32 1 59.1162 65.0147 76.2237
33 1 59.4287 66.6152 73.5139
34 3 60.1075 67.6765 75.8019
35 1 61.954 65.4101 75.4385
36 1 57.9473 67.4481 77.6231
37 1 62.3186 67.0388 73.0221
38 1 62.7483 68.4227 75.7986
39 5 65.6534 64.5237 76.7214
40 2 63.7902 66.3931 77.4858
41 1 64.7891 66.4713 74.636
42 1 65.7116 68.1342 77.0358
43 1 67.0491 64.5915 74.0065
44 3 67.3033 66.3649 75.93
45 1 69.4376 66.4455 74.3793
46 1 66.8428 68.626 74.1468
47 1 68.6574 68.5924 76.4567
48 1 71.3492 68.6931 75.4994
49 2 70.2249 66.5079 77.0746
50 1 71.5614 64.7484 75.6908
51 1 73.0582 67.0472 77.2929
52 2 51.3478 69.3197 75.664
53 1 50.6056 71.0985 77.6817
54 4 55.8581 69.6192 76.9226
55 1 55.9238 70.6194 74.2559
56 1 53.363 71.3668 75.9505
57 4 56.9383 72.1701 76.7906
58 1 55.1551 73.5281 75.0017
59 2 58.1932 69.2358 73.0934
60 1 58.561 69.8969 75.7506
61 4 58.4255 72.4482 74.3278
62 1 60.9159 69.5586 73.7993
63 3 60.84 71.4874 75.6212
64 1 59.6463 72.5077 77.7215
65 3 64.9184 70.1335 75.6476
66 1 66.2422 71.6516 73.9586
67 2 64.1067 69.2182 73.4467
68 1 65.1396 72.7007 76.6618
69 3 62.9479 70.8819 76.7837
70 1 63.1584 71.7808 74.2543
71 2 67.1538 70.8334 76.5941
72 5 69.0683 70.7674 74.5588
73 1 69.9009 71.2659 77.4429
74 1 67.996 73.4139 75.7677
75 1 72.9098 70.1915 77.6514
76 4 52.2373 74.1253 75.7988
77 1 54.7457 76.2388 76.3112
78 1 57.583 75.1523 75.8607
79 5 59.3504 77.4379 74.9012
80 2 60.1794 74.302 75.097
81 1 60.0246 76.0417 77.3345
82 1 62.3294 73.677 76.5611
83 1 64.8818 74.397 74.3142
84 1 62.2627 76.3992 75.1997
85 3 66.7336 74.7046 77.65
86 4 64.4979 75.6445 76.7861
87 5 66.8597 76.4275 75.6312
88 1 56.7831 78.4118 75.9354
89 1 61.3773 79.002 76.4406
90 3 58.953 78.4769 77.5684
91 4 58.8111 80.6863 76.2433
92 1 64.4848 78.4624 76.5292
93 2 67.6789 79.017 77.5337
94 1 57.0351 54.0361 81.0789
95 1 61.9025 54.3541 81.1593
96 3 49.0755 58.6317 81.1584
97 1 51.3798 59.0986 82.2297
98 3 55.1011 58.8235 78.2783
99 1 56.4536 56.6468 79.2315
100 1 53.1473 56.9954 81.0707
101 1 55.3636 58.9154 81.171
102 2 55.6485 56.1879 81.8222
103 2 52.924 59.4301 79.6275
104 3 59.1203 57.7456 78.8463
105 5 58.2084 57.3606 81.3855
106 1 59.4 55.2327 79.7986
107 1 60.374 59.288 80.6813
108 1 61.7877 56.9526 79.0699
109 2 60.9128 56.8535 81.7355
110 1 64.5376 57.9261 78.0375
111 1 64.3819 55.3377 79.6513
112 2 63.5124 56.4874 81.8754
113 4 63.2534 59.001 80.3798
114 4 65.6496 58.0601 80.959
115 1 66.5375 55.401 81.8074
116 2 69.5679 58.2239 78.059
117 1 67.0936 56.4647 78.848
118 1 68.7397 57.9768 80.7431
119 2 69.0972 55.2469 80.862
120 1 70.9878 56.3947 82.5092
121 3 71.0977 59.0345 81.7318
122 1 67.1581 59.4744 78.16
123 4 71.6731 57.5661 79.7154
124 1 73.508 58.1214 82.4506
125 1 49.5342 63.6947 80.8009
126 1 50.5498 60.8994 79.8938
127 3 52.1825 62.9817 79.7889
128 1 48.4527 61.049 82.1182
129 1 52.297 64.1211 82.3182
130 1 54.8127 61.4582 78.8681
131 1 53.3948 61.2848 81.6305
132 2 54.4271 63.7313 80.4194
133 4 56.1013 61.9037 81.3555
134 1 57.3996 62.8802 78.2684
135 1 57.4524 59.7946 79.4136
136 3 59.3047 61.682 80.0112
137 1 57.9576 63.8765 81.0562
138 1 61.9581 61.2514 78.9199
139 1 60.9277 63.7795 80.4584
140 3 61.8688 61.3139 81.6216
141 3 60.0749 63.0969 77.9316
142 3 59.6476 62.3953 82.4582
143 1 58.0803 60.1786 82.3652
144 4 64.843 60.8728 79.459
145 4 63.7125 63.124 80.73
146 1 62.7876 63.9856 77.9692
147 1 64.4408 60.9527 82.5572
148 4 66.4676 63.0217 81.1767
149 4 67.059 60.5159 80.8603
150 1 69.7572 60.6812 79.7115
151 4 71.3885 62.8283 81.089
152 4 66.9294 62.4504 78.3814
153 4 69.0275 63.673 79.6892
154 1 71.3499 62.81 78.0028
155 4 69.234 63.365 82.4929
156 4 73.8323 63.2742 79.9521
157 1 72.7866 60.4376 80.1956
158 4 75.3307 60.1901 81.5632
159 5 47.3575 65.6339 81.7938
160 1 48.77 66.3467 79.279
161 1 48.2992 68.5137 81.4839
162 1 50.6109 66.6929 82.1846
163 1 51.6795 65.6975 79.6343
164 1 50.8117 68.6708 79.7666
165 1 53.7831 64.2609 77.8072
166 1 56.121 65.5153 79.2329
167 3 53.7959 66.8815 78.8773
168 2 53.1799 68.8518 80.9516
169 1 54.0148 66.2945 81.3955
170 1 55.7754 68.6031 79.5913
171 2 55.6775 64.4963 82.3906
172 2 60.1575 66.276 80.8187
173 2 58.8823 65.1878 78.9384
174 3 59.133 68.3303 79.7606
175 1 57.6339 66.8566 81.3987
176 1 61.0015 66.6042 78.1142
177 2 61.5177 68.4335 80.1286
178 1 60.2113 68.5162 82.4012
179 4 65.4939 64.869 79.3311
180 4 64.9124 65.1958 82.0395
181 1 62.939 66.1863 80.2822
182 1 65.4407 67.7779 79.9857
183 2 63.2319 68.6829 78.4328
184 1 67.9354 66.3962 78.6019
185 2 70.3548 65.8256 82.0934
186 4 67.6851 65.4173 81.4205
187 5 68.724 67.8433 81.0009
188 1 71.3012 65.5739 79.3827
189 1 70.6375 68.5321 78.8652
190 1 71.3772 68.4886 82.1167
191 4 73.038 65.4676 81.6365
192 2 74.7794 65.884 79.3199
193 4 75.8308 65.2227 81.7438
194 1 73.3801 68.0191 80.1035
195 1 76.2961 67.9919 81.0064
196 4 78.256 66.3791 82.5289
197 3 78.6243 68.9275 82.3271
198 1 48.1299 69.5134 78.6823
199 2 46.456 70.5394 81.411
200 1 47.2976 73.0795 82.1957
201 1 49.2747 71.5085 80.5973
202 4 52.2472 71.3649 80.0788
203 4 52.5497 72.4774 82.4631
204 4 52.9525 73.3409 78.2674
205 4 54.7915 70.9986 81.6195
206 1 53.0388 69.1437 77.9142
207 4 54.7686 71.3254 78.7267
208 4 54.6088 73.5486 80.7153
209 5 57.1303 72.3468 79.6899
210 1 56.9795 72.8759 82.5576
211 1 60.6896 69.6139 77.7936
212 2 58.0673 70.2067 78.5342
213 1 57.7549 70.0667 81.3743
214 1 59.6278 73.2623 80.7532
215 2 60.3144 70.6389 80.4666
216 3 62.006 72.3567 81.5588
217 1 62.346 71.9015 79.0598
218 1 65.0558 70.6279 78.6515
219 1 63.4675 69.8731 81.0271
220 1 64.6932 72.5196 81.2527
221 5 66.6994 70.3599 81.4873
222 5 67.6793 69.4523 78.9423
223 1 67.3594 72.4565 78.9727
224 2 67.2803 73.0696 81.6318
225 1 69.5809 70.8634 80.5521
226 2 75.3544 69.3495 78.8269
227 1 74.1904 70.1762 82.0874
228 1 74.7225 71.8969 79.622
229 2 72.2036 70.5892 80.2216
230 5 71.9682 72.9338 78.7195
231 1 72.7794 72.9455 81.5744
232 1 76.9802 70.9393 81.5299
233 5 48.0897 75.4505 80.5985
234 1 50.1205 73.9421 78.8024
235 3 50.2599 76.6168 79.5363
236 1 52.2643 76.2531 77.8464
237 2 50.0053 74.0648 81.5301
238 1 52.2531 75.1039 80.661
239 1 49.8987 77.3574 82.0463
240 1 52.7344 78.0197 80.3144
241 4 55.5792 74.1011 78.036
242 1 56.9987 76.9166 78.3908
243 1 56.9083 75.2715 80.826
244 2 54.5541 76.0849 79.385
245 2 55.6752 78.1347 80.5376
246 1 54.563 76.3519 82.2712
247 2 58.227 74.5335 78.6055
248 1 59.7693 76.2827 80.4513
249 2 61.4151 74.4344 79.0204
250 2 62.0329 77.5918 81.2543
251 1 62.5833 76.8752 78.4688
252 5 64.3558 74.3281 79.1058
253 2 66.0929 77.1183 78.2656
254 1 62.5227 74.9461 81.4108
255 1 64.6375 77.2041 80.4613
256 4 65.3368 75.0195 82.3516
257 3 69.411 73.9537 78.0795
258 1 68.7927 76.5155 77.8529
259 1 69.8618 73.7116 80.7164
260 1 67.1025 75.2969 80.1587
261 1 67.6303 78.2503 80.4035
262 2 69.5348 76.3803 80.4864
263 1 70.1517 78.3127 82.2931
264 4 71.6251 75.8941 78.9171
265 2 74.0023 74.7084 79.9331
266 1 74.5876 76.2141 82.2064
267 2 72.7099 78.2915 81.0017
268 1 71.7186 75.7205 81.888
269 1 51.8412 80.2952 81.9214
270 2 54.6297 78.4436 78.119
271 1 56.9772 80.151 78.5452
272 1 54.3975 80.5902 80.081
273 1 56.9507 80.2723 81.7273
274 2 54.1282 81.9977 82.4858
275 1 56.6087 82.9103 80.6397
276 3 58.1789 78.4243 80.2447
277 3 58.9486 80.9873 80.1355
278 1 60.6023 79.0195 79.4939
279 1 60.8295 81.5736 78.1838
280 3 61.1949 81.8864 80.8931
281 1 60.0203 79.4359 82.4224
282 1 59.1515 82.3191 82.5259
283 2 62.9726 79.62 78.5604
284 1 65.5027 79.8937 79.0428
285 1 63.0006 80.0414 81.2854
286 2 65.7502 81.7979 81.0496
287 5 63.4881 82.1952 79.3271
288 3 65.4588 79.3808 81.7308
289 1 63.4641 82.9538 82.1629
290 1 70.3262 78.8026 79.321
291 1 68.1791 81.0371 79.7526
292 2 70.3589 80.8299 81.4111
293 4 68.7334 82.9598 82.084
294 1 59.3411 83.6199 79.8013
295 5 61.2034 84.6438 81.7493
296 2 53.3487 53.481 83.9496
297 1 56.3364 54.5225 83.9992
298 1 55.3957 52.0689 85.2876
299 1 53.0942 52.5098 87.1485
300 3 54.3182 54.5095 86.021
301 3 57.8843 53.0914 85.7647
302 1 58.2797 52.1511 83.3994
303 2 60.1807 53.8438 85.2949
304 1 59.8741 51.1967 86.0307
305 1 61.368 52.4578 83.4259
306 1 62.5092 52.8329 86.3015
307 1 64.1655 53.923 83.2152
308 1 65.4376 52.3489 85.61
309 2 66.5098 54.5774 84.4618
310 1 69.1458 54.372 83.8414
311 1 68.3221 53.3587 86.6044
312 1 71.2876 54.1314 86.4036
313 2 47.1397 58.843 86.3407
314 1 51.6825 54.9151 85.8765
315 1 49.0483 58.7507 84.0902
316 2 51.0564 56.3747 83.1094
317 4 49.0955 56.6185 86.1431
318 1 51.8063 57.931 85.2275
319 2 50.3308 59.5018 86.6795
320 1 53.8422 56.1844 83.9559
321 3 53.8129 58.7019 83.226
322 1 56.7029 57.6578 83.7949
323 2 55.9026 56.3452 86.0847
324 1 54.8636 58.8016 85.6974
325 2 53.53 56.7124 86.8815
326 2 57.5498 58.0678 86.9714
327 1 59.217 54.9748 82.9127
328 1 59.7333 57.8998 84.1167
329 1 58.5037 55.7729 85.807
330 1 61.934 55.6605 84.15
331 3 60.0584 57.7146 86.9672
332 5 61.3178 55.4643 87.0972
333 1 64.3177 55.2775 86.2152
334 1 62.5322 58.726 83.037
335 1 65.1258 57.0727 83.9855
336 2 64.8452 59.5445 84.9774
337 1 62.6153 58.0546 85.8619
338 3 66.5186 59.2446 83.0858
339 3 65.3047 57.8528 86.813
340 3 70.1169 56.2592 85.4683
341 1 67.4399 59.496 85.6396
342 1 68.2474 57.2568 83.5975
343 1 67.3625 56.3007 86.2669
344 2 69.3975 58.1243 86.8582
345 1 70.7696 58.6875 84.5317
346 1 72.8765 56.1941 84.8236
347 2 73.4296 58.8501 85.1582
348 2 73.8527 54.9341 87.1486
349 1 75.0336 57.377 87.1392
350 4 75.6768 57.4036 84.3168
351 1 72.0472 57.7359 87.2705
352 4 77.249 59.4252 86.6538
353 2 47.0758 63.1867 83.0046
354 5 46.8071 60.8139 84.5682
355 2 45.062 62.9493 84.6383
356 2 47.5214 63.1945 85.648
357 1 45.3633 61.5916 87.0911
358 1 52.5559 60.6931 84.5229
359 2 50.9245 61.8863 82.5714
360 1 49.6676 61.5343 84.9367
361 1 51.9689 63.5371 85.2816
362 3 49.81 63.3252 87.0354
363 3 51.9405 61.5952 87.0426
364 3 54.3093 62.8533 83.7258
365 3 55.4563 60.5375 83.6212
366 1 57.1774 62.7876 83.9259
367 1 54.7264 61.7436 86.153
368 2 55.8083 64.0732 85.7466
369 2 57.2532 62.271 86.8746
370 1 59.8042 62.4519 85.3281
371 1 57.705 60.1275 85.2886
372 2 60.528 60.4439 83.477
373 3 60.5224 59.8338 85.7947
374 1 62.0991 63.3654 83.3327
375 1 62.7222 61.0832 85.1131
376 2 64.7801 63.3527 83.8624
377 2 63.4074 63.5991 85.9635
378 1 65.4977 61.9698 86.0805
379 5 69.0957 60.1742 82.6563
380 1 67.12 61.8608 83.7375
381 1 70.0604 61.7171 84.8281
382 1 68.0233 63.3367 86.7069
383 2 71.1174 62.7644 87.0736
384 3 71.8872 60.3773 86.3233
385 4 72.0819 63.7582 83.5095
386 1 72.5392 60.8436 83.2456
387 4 74.8266 62.7117 82.6196
388 1 73.5531 62.451 85.6537
389 1 75.4426 60.3688 84.4812
390 4 76.7222 62.9955 84.967
391 1 44.4696 64.4102 86.9154
392 1 46.3294 65.4353 84.6576
393 1 45.8414 68.0838 83.2138
394 1 44.3177 67.2387 85.9616
395 5 47.1858 68.2412 85.805
396 1 49.3935 64.3114 83.7969
397 2 48.4367 67.0111 83.7915
398 3 51.2607 66.0795 84.7567
399 1 48.8302 65.8433 86.3316
400 1 50.1872 68.5319 85.0837
401 2 52.7163 67.8016 83.4689
402 3 51.2363 65.3856 87.1794
403 1 54.0084 65.5765 84.383
404 1 56.9008 66.0662 84.1669
405 2 55.2818 68.043 85.1681
406 1 52.9845 67.461 86.4138
407 3 55.8664 66.2761 86.7287
408 1 55.3527 68.4552 82.6325
409 5 59.359 64.8677 83.3508
410 2 57.8763 68.4592 83.6444
411 3 59.4988 67.0671 84.8337
412 1 58.3443 64.963 86.4505
413 1 57.6733 68.2295 86.5291
414 4 61.6797 66.1135 82.9149
415 1 61.2463 65.1492 85.7891
416 1 61.9355 68.2126 85.067
417 2 63.4619 67.8493 82.6035
418 1 64.0668 65.9894 84.6206
419 3 64.5738 68.624 84.6906
420 1 66.2393 67.6821 82.7645
421 2 66.7378 67.2045 85.394
422 1 65.5394 65.2027 86.9704
423 2 63.0889 66.9917 87.0879
424 1 65.3833 68.4009 87.1864
425 1 67.0802 64.8533 84.2325
426 1 69.0501 67.3211 84.0923
427 1 70.0481 64.7464 85.1772
428 2 70.4941 67.1622 86.4421
429 2 68.1878 66.1476 87.1746
430 1 72.1315 66.7451 84.3324
431 4 74.4936 64.9699 84.1668
432 3 74.261 67.4664 82.7684
433 1 74.7205 67.3154 85.8829
434 1 75.3854 64.6136 87.0807
435 2 72.6127 65.0014 86.3597
436 1 72.5325 68.8317 87.0446
437 4 77.0169 65.8789 84.8006
438 4 79.3439 65.4468 86.3922
439 1 79.1596 67.9944 84.8877
440 1 76.3351 68.7954 83.8968
441 1 47.8695 70.3077 83.8872
442 3 45.6719 71.809 83.9288
443 2 44.8771 69.7488 85.2273
444 1 46.4821 71.3674 86.5822
445 3 47.6023 73.2229 84.9916
446 1 51.017 69.856 82.5932
447 1 49.8775 72.4946 83.6071
448 2 51.8277 70.0393 86.6304
449 1 49.529 71.359 86.2573
450 1 52.2609 72.7358 85.5299
451 1 53.4924 70.1986 84.472
452 1 56.5599 70.5604 84.4857
453 5 55.0004 69.6952 87.11
454 1 55.2564 72.5242 86.1914
455 3 59.408 71.5337 82.8185
456 1 59.533 70.0984 85.0161
457 1 58.278 73.097 85.1377
458 1 61.9758 70.6302 83.4132
459 4 61.202 72.4253 86.356
460 1 60.9279 73.5822 83.688
461 3 64.7267 70.6335 83.3239
462 3 63.5316 72.781 83.7047
463 1 66.2117 72.8603 84.2388
464 1 63.4845 70.7074 85.9543
465 1 66.1426 71.3457 87.0215
466 3 68.9717 69.5923 82.8159
467 1 66.9682 69.8887 84.5211
468 1 70.6383 69.8258 84.9877
469 1 68.9573 72.1091 83.3257
470 3 71.3404 71.0416 82.6764
471 2 71.0574 73.5365 83.4701
472 3 68.62 71.4688 85.7937
473 1 71.0501 72.6786 86.0702
474 1 68.4081 69.019 87.0248
475 3 73.2549 69.1366 84.3518
476 1 73.2482 71.784 84.4317
477 1 75.5437 73.387 82.6191
478 2 74.8113 70.1783 86.0954
479 2 76.0101 71.4367 84.4543
480 1 75.0137 73.6179 85.897
481 1 78.6214 70.9754 84.0888
482 3 77.4788 73.4568 84.605
483 1 77.4789 69.6666 86.5968
484 2 80.2904 70.1686 86.21
485 2 78.6992 72.3314 86.5159
486 3 47.9159 77.8537 84.1033
487 5 47.5636 75.9253 86.2751
488 5 48.5169 75.2948 83.5829
489 1 51.5767 75.1485 83.5572
490 3 52.2081 77.8033 83.108
491 3 49.9226 74.3044 85.6584
492 1 50.2028 77.1305 85.3521
493 1 52.1635 75.5202 86.6754
494 4 54.4567 73.8965 83.79
495 2 56.7403 75.284 84.1698
496 2 53.6274 76.489 84.7134
497 1 55.9039 77.932 85.1244
498 4 55.2132 75.3973 86.3588
499 1 57.6493 77.4444 82.701
500 3 58.865 74.9661 82.7354
501 3 59.2118 75.5942 85.0914
502 1 60.9698 76.6915 83.553
503 3 61.5973 75.0467 85.7717
504 4 57.6908 76.2161 86.925
505 1 60.6929 77.0418 87.2117
506 2 63.3559 75.2245 84.0032
507 1 63.916 77.7771 83.3285
508 1 64.0057 73.7578 86.212
509 1 63.6338 76.8261 86.2877
510 5 66.0641 75.8138 84.82
511 2 66.5937 77.3393 82.6657
512 3 68.7788 73.981 85.2775
513 1 68.5829 75.4414 83.0183
514 2 68.3897 78.1409 84.1183
515 1 68.5611 76.659 86.2475
516 1 71.019 75.692 84.9503
517 5 66.8451 74.1887 86.9006
518 3 73.3449 74.5366 83.9564
519 1 73.7191 76.7516 85.5364
520 3 72.5157 77.6387 83.4581
521 3 77.3106 74.4187 86.9836
522 1 76.4482 75.9956 84.6302
523 4 78.3485 76.8049 86.8402
524 1 48.2676 78.9597 86.6881
525 1 52.7209 78.8613 85.5495
526 1 49.9625 79.7235 84.0787
527 4 52.2134 81.7005 84.5833
528 2 50.6928 80.3758 86.6401
529 1 54.4578 79.2903 82.9543
530 2 57.26 80.2773 84.2957
531 1 56.3566 82.8292 83.7283
532 5 54.8443 80.9785 85.4303
533 1 57.5096 81.0114 86.9158
534 1 58.9121 78.3507 85.2515
535 5 59.6676 81.184 85.0557
536 2 61.8269 81.3278 83.5223
537 1 61.9894 79.1637 85.1408
538 3 60.025 79.729 87.3094
539 1 61.7862 81.6432 86.9202
540 1 66.0363 78.6991 85.2936
541 4 64.4946 80.7382 83.8447
542 2 64.36 80.7151 86.5202
543 1 70.8831 78.6089 85.3308
544 1 67.6065 80.3169 82.6821
545 1 69.8076 81.1958 84.3358
546 3 68.5231 79.436 86.291
547 4 67.0 81.3647 85.3136
548 4 69.4043 81.7664 87.196
549 1 74.9686 78.7893 83.5236
550 1 72.435 80.3012 83.1957
551 5 72.2053 81.8605 85.7883
552 3 73.3718 79.4195 85.675
553 1 75.9664 78.6984 86.2874
554 1 56.6142 85.5698 85.1265
555 5 54.1184 83.7533 85.4592
556 3 56.5299 83.3597 86.5745
557 3 58.498 83.5918 84.9571
558 1 61.1683 83.7877 84.5018
559 1 58.4477 85.1288 82.7619
560 1 59.7227 86.0349 85.8328
561 1 59.4605 83.4153 87.3048
562 1 63.9185 83.2464 85.4837
563 1 66.1464 83.2629 83.399
564 3 63.7389 85.1626 83.6228
565 3 62.5054 85.8822 85.6531
566 2 65.9636 85.2737 85.3025
567 5 66.3453 83.1846 87.1293
568 4 68.4946 83.8889 85.3239
569 2 52.7428 52.7774 90.5046
570 4 50.7387 53.9184 88.6092
571 4 56.318 54.7166 90.3494
572 3 54.9724 52.3016 89.0133
573 3 57.3947 52.4158 89.7042
574 1 56.327 54.1164 87.582
575 1 57.0726 51.0956 87.4591
576 1 55.3477 52.1904 91.6757
577 1 59.4811 50.6667 89.1854
578 1 59.376 53.3768 87.9954
579 4 58.8462 53.621 91.3367
580 2 61.7546 52.3255 88.9792
581 1 58.0792 50.9939 91.9779
582 1 61.0194 51.5205 91.5775
583 1 64.3481 51.5414 88.3944
584 1 65.3926 53.4382 90.384
585 2 63.4373 54.2811 88.6289
586 2 65.9654 53.7619 87.7641
587 1 63.9842 50.9894 91.4023
588 3 62.8444 53.3393 91.0982
589 3 66.6877 51.3597 91.7239
590 2 67.9568 54.1627 89.7297
591 1 67.4258 51.6293 89.0584
592 1 70.3671 52.8997 89.0362
593 1 69.392 51.8774 91.6524
594 1 45.9283 59.3196 89.0309
595 1 47.3108 58.0834 91.6742
596 1 48.616 58.3511 88.6455
597 1 51.1695 56.9265 88.2564
598 5 48.8672 55.9128 90.0275
599 2 51.3612 55.38 90.7656
600 1 50.2324 58.4872 91.3534
601 1 53.5975 54.8647 88.8397
602 1 55.5042 57.2706 88.6333
603 1 53.0602 57.5395 90.4646
604 2 55.6643 57.0021 91.4171
605 1 53.1672 59.323 87.99
606 1 53.8703 54.9181 91.9108
607 1 61.0118 54.9452 89.9595
608 1 58.3492 56.0848 88.772
609 1 57.7081 58.715 90.1748
610 1 60.5156 57.9078 89.6654
611 1 58.5933 56.4115 91.9539
612 2 61.4871 57.1012 92.0763
613 1 66.0915 56.0557 88.9993
614 1 63.2405 57.1383 88.5338
615 2 65.1658 58.2957 90.184
616 1 63.638 55.8378 91.0717
617 1 62.8632 59.4335 90.6071
618 3 66.1782 56.146 91.727
619 1 69.4444 55.7672 88.2441
620 1 67.3106 58.7253 88.6672
621 1 70.2307 58.3072 89.582
622 1 70.1295 54.8667 91.3673
623 2 68.3211 56.7165 90.6527
624 2 71.3845 57.1601 91.5653
625 1 67.0868 58.7012 91.9873
626 1 72.2472 55.4912 89.2772
627 1 73.5463 58.3737 90.0014
628 2 75.0745 56.1248 89.6456
629 2 75.67 57.0979 92.1234
630 1 73.4747 55.4482 91.9449
631 1 76.5543 58.7987 89.4729
632 5 78.4586 59.1919 91.9519
633 1 44.7343 63.6506 89.8398
634 3 46.6154 61.8243 89.4491
635 1 47.2207 64.0206 88.1574
636 1 45.8022 60.7115 91.6892
637 1 47.5562 63.3106 91.4604
638 1 48.2416 61.0984 87.4525
639 1 50.7604 60.4919 89.155
640 2 49.1303 62.6429 89.4481
641 1 51.6516 63.4207 89.0881
642 2 48.3207 60.4099 90.4756
643 1 50.3621 61.9498 91.7647
644 2 52.4808 60.2255 91.2009
645 2 56.0442 59.9571 87.9098
646 1 54.1774 62.001 89.0352
647 3 52.971 62.658 91.4216
648 2 55.5474 62.8607 91.2705
649 1 55.0794 59.7944 90.7607
650 1 57.2516 61.6255 89.6195
651 1 56.3508 64.2277 88.6744
652 2 61.7952 59.5564 87.986
653 1 59.0997 60.1499 87.8869
654 2 59.1962 62.8945 88.2185
655 1 60.3002 61.1107 90.463
656 3 61.2957 63.5712 90.1431
657 1 61.6589 62.1681 87.6399
658 1 58.7266 64.0104 90.6971
659 1 64.4295 60.079 88.0046
660 2 63.0893 61.8769 89.8051
661 3 64.7271 62.864 88.3947
662 1 65.6524 61.2884 90.7713
663 1 64.0226 64.1547 90.9551
664 2 66.9245 61.4421 88.404
665 1 68.8716 60.7045 90.6388
666 1 69.4135 60.686 87.5595
667 3 69.0095 62.8951 89.0824
668 1 71.0241 63.1595 90.663
669 1 68.1979 63.3382 91.7919
670 1 74.4214 60.2091 87.4227
671 1 71.9392 60.7205 88.9978
672 3 71.511 59.9793 91.4156
673 1 75.644 63.8153 90.179
674 1 73.2575 63.239 88.6481
675 2 74.9744 61.1632 89.882
676 1 75.6541 59.7432 92.1318
677 1 73.2979 61.7722 91.9054
678 4 76.6824 62.0323 87.6978
679 1 77.8274 61.5755 90.4272
680 1 80.6306 63.1308 90.9896
681 4 79.5657 62.5579 88.2651
682 2 44.2742 66.3978 89.0068
683 1 46.6404 66.0979 90.435
684 3 46.3093 66.2854 87.3763
685 1 45.732 68.7326 88.2724
686 3 48.1008 67.2919 88.6004
687 1 44.528 68.6945 91.0181
688 1 44.1819 65.85 92.0838
689 5 49.493 65.2838 89.377
690 5 50.4454 67.8175 87.8021
691 3 52.282 66.2312 89.2344
692 1 51.3263 64.876 91.6902
693 1 50.421 67.69 90.6734
694 2 48.821 66.0146 92.129
695 1 53.7516 64.6505 87.3966
696 3 53.9728 64.6356 90.253
697 1 55.0739 67.054 89.0406
698 1 56.2473 65.4222 91.6803
699 1 53.5827 67.0382 91.5554
700 1 56.8161 68.2932 91.5264
701 3 60.1926 65.0169 88.3894
702 1 58.0963 66.6269 89.0858
703 2 58.9979 66.6395 91.6176
704 5 60.3846 67.5078 87.4053
705 1 61.321 66.7367 90.06
706 1 66.7145 64.2517 89.4414
707 1 62.8352 64.731 88.3429
708 1 64.4877 66.8825 89.6177
709 3 65.4257 68.5818 91.5292
710 1 66.2428 65.8957 92.0445
711 1 70.4847 65.0283 88.2308
712 1 67.4066 67.416 89.542
713 1 70.4286 67.9409 89.005
714 2 69.0043 65.5011 90.3547
715 2 70.3461 68.5626 91.5674
716 1 73.2623 66.2628 88.684
717 2 75.1185 68.8528 88.198
718 1 75.7322 66.8193 90.2614
719 1 73.2336 68.8505 90.1627
720 1 71.4737 66.1798 91.234
721 2 73.4442 64.4732 91.5722
722 3 73.7534 67.0928 92.0824
723 4 77.8686 64.5945 88.6351
724 1 80.5475 65.437 89.1038
725 2 78.4801 66.8683 90.1204
726 4 77.1544 66.9758 87.5756
727 5 79.7635 68.0988 88.0296
728 1 80.7174 66.1356 91.9325
729 1 78.2009 64.5783 91.6165
730 1 47.7611 69.0056 90.6458
731 1 45.4063 73.5418 90.7756
732 1 44.5831 71.2888 89.0712
733 1 47.6249 71.7176 89.3485
734 2 46.1234 70.9115 91.5648
735 2 48.0178 72.7162 91.9349
736 3 43.7184 71.543 91.7668
737 2 48.3151 69.53 87.7163
738 2 48.3762 73.4914 87.3601
739 1 50.3462 70.4609 89.1908
740 1 50.9359 73.1949 88.2207
741 1 52.8934 71.6074 90.4592
742 3 52.2683 69.3493 91.5511
743 1 50.5681 73.4145 91.1512
744 1 52.8631 68.9594 88.9542
745 4 50.0419 70.7484 91.9719
746 2 56.7621 69.2104 88.9836
747 3 53.2177 71.5829 87.8253
748 1 55.6163 71.7082 89.2268
749 2 57.1802 70.8437 91.2463
750 3 54.7612 69.5777 90.587
751 3 55.119 72.2132 91.936
752 1 59.3699 69.3503 89.6727
753 1 57.9886 71.1425 87.4315
754 1 58.5293 72.8011 89.8486
755 2 60.653 70.1189 87.382
756 1 61.3527 71.7992 89.4915
757 4 61.8295 69.2267 91.4542
758 2 59.7691 71.3448 91.6298
759 1 62.8526 69.2514 88.634
760 2 65.9955 69.781 89.3405
761 2 63.8342 72.0965 88.4075
762 1 66.2198 72.4882 89.8563
763 5 64.1236 70.7479 90.7923
764 5 63.3438 73.5716 90.7552
765 1 68.7147 72.4818 88.0952
766 3 70.6145 70.5612 87.8849
767 3 71.1208 73.0345 88.8946
768 1 71.4432 71.0266 90.535
769 1 68.5852 70.1479 89.9783
770 3 66.8569 70.8506 91.8855
771 1 68.9922 73.0383 90.9011
772 1 73.3056 71.5961 87.8699
773 4 73.3451 73.3867 90.197
774 4 75.0179 71.0946 90.3784
775 1 79.9874 68.9548 91.1811
776 1 76.3949 71.9762 87.9495
777 1 77.2917 69.3403 89.6971
778 1 79.5648 70.9907 88.7917
779 3 77.6157 72.0951 90.4198
780 1 79.9875 71.9754 91.6931
781 1 45.8416 74.0936 87.8681
782 1 48.1713 74.5938 89.7936
783 3 45.9449 76.1216 90.2538
784 5 47.9688 77.363 89.0636
785 1 46.898 77.9507 92.049
786 2 49.6826 75.7535 87.8315
787 5 51.628 75.6752 89.6765
788 1 50.7674 78.2678 88.3322
789 1 49.4855 76.4876 91.5923
790 1 51.9704 78.14 91.1371
791 1 53.9273 74.1216 88.5686
792 2 56.8689 73.894 87.9091
793 4 53.5305 77.3705 88.2174
794 4 55.9811 76.6714 88.9014
795 3 53.406 74.0625 91.1159
796 2 54.0637 76.395 90.8186
797 1 56.146 74.3968 90.5749
798 2 56.3345 77.2091 91.5247
799 4 59.4566 74.1676 87.4578
800 1 58.8587 75.8812 89.8463
801 1 61.9855 74.6275 88.4953
802 2 61.5913 76.0839 90.8473
803 1 60.4354 74.0249 91.965
804 1 65.0258 74.9908 88.8993
805 1 63.317 77.2948 89.2566
806 5 66.2571 77.6555 89.8448
807 2 66.707 74.7128 91.3236
808 2 66.2472 76.8449 87.3812
809 1 64.4452 76.0391 91.7989
810 1 68.1254 75.5394 89.2059
811 2 70.0127 74.7755 87.4274
812 1 71.0511 75.5325 89.8914
813 2 69.5204 78.1785 91.4252
814 3 71.155 77.0497 87.5489
815 4 69.1324 75.6144 92.0426
816 1 72.8096 74.7752 87.548
817 1 76.0094 74.2778 89.9472
818 5 71.8357 78.24 90.101
819 1 75.5621 76.2033 87.8253
820 3 73.7548 76.0761 89.8533
821 2 73.4532 77.9771 87.9704
822 4 74.2636 77.9691 91.4763
823 1 78.9628 73.938 88.9839
824 1 77.843 76.6895 89.7948
825 1 78.4619 74.5463 91.9515
826 3 76.3045 76.2247 91.9286
827 4 46.5318 79.6201 89.3572
828 1 47.7304 80.8654 91.6923
829 4 51.785 82.6548 87.364
830 2 49.3908 78.9876 90.7082
831 1 49.21 80.9566 88.8985
832 1 51.9547 81.0072 90.0915
833 5 49.9167 82.8723 91.2274
834 3 52.9234 80.036 87.9188
835 1 54.6127 79.1559 90.2672
836 4 55.3682 79.2379 87.544
837 1 54.5877 82.1603 88.1872
838 2 56.6057 80.8523 89.6234
839 1 54.7267 82.133 91.2531
840 1 60.5278 78.4788 89.7405
841 4 57.9152 78.5004 88.3612
842 1 59.3432 81.3336 89.374
843 4 57.9699 79.1487 90.9809
844 2 61.3861 83.0157 89.6756
845 3 62.006 80.6895 89.6852
846 1 57.8128 82.1705 92.0241
847 1 60.4839 80.6205 92.0407
848 3 64.8796 78.7385 87.7163
849 3 62.4847 79.2436 87.7756
850 1 64.4933 79.9808 90.0129
851 1 63.9923 82.5287 88.6441
852 3 65.8949 82.1382 90.6526
853 1 66.8074 80.4664 88.1673
854 1 62.6096 78.5758 91.8793
855 1 63.3168 82.1528 91.7661
856 1 69.0162 78.3859 88.7628
857 1 68.1514 82.9398 89.4955
858 1 70.3024 80.9045 90.5552
859 1 67.4485 80.0107 91.1517
860 1 71.5123 79.9218 87.8418
861 4 72.6336 82.4427 91.9629
862 4 75.7334 78.8234 89.2301
863 4 73.5315 80.4844 90.2625
864 4 74.3347 80.8636 87.5906
865 4 72.0295 82.6459 88.7505
866 4 76.9591 78.8854 91.7216
867 1 52.5996 83.9486 89.8978
868 1 56.7807 86.6806 89.6866
869 1 54.8989 85.1682 87.8995
870 1 57.1636 83.5085 89.326
871 2 55.1569 84.6797 90.6324
872 3 59.0827 87.4079 88.2642
873 2 57.7114 85.4398 87.5353
874 1 59.8014 85.2308 89.7088
875 5 57.8526 85.0847 91.8184
876 4 58.8407 87.706 91.384
877 1 61.747 86.8286 88.1635
878 4 61.6479 87.2418 91.1952
879 2 61.9972 84.2643 87.5193
880 1 63.1438 84.9532 90.327
881 3 65.7837 84.2844 89.5779
882 1 64.4376 85.5535 87.5779
883 2 65.3393 86.698 90.0513
884 1 67.4213 85.619 87.9556
885 4 70.5206 84.0319 90.9578
886 4 70.0279 84.385 87.7655
887 4 67.9571 85.5823 90.89
888 1 51.4741 53.7155 93.0983
889 4 51.6434 53.0678 96.0811
890 1 54.1532 53.1004 94.3688
891 2 56.8822 52.071 94.2782
892 4 56.5552 54.5092 93.0425
893 4 55.3358 51.9641 96.7858
894 1 56.1433 54.5727 96.1029
895 1 60.0697 51.4431 94.3773
896 4 58.7516 54.0382 94.3549
897 4 60.9789 54.3852 92.7981
898 4 58.2353 52.4952 96.8483
899 1 61.3479 53.7702 95.7659
900 2 62.7335 52.6556 93.6209
901 2 62.5519 50.165 93.7183
902 4 64.7867 54.1072 93.0716
903 2 64.2383 53.7452 95.584
904 1 65.3273 51.5252 94.139
905 1 63.1066 51.3757 96.2032
906 1 67.4546 53.886 92.3819
907 2 69.6835 53.7664 93.9562
908 3 68.0279 51.7892 94.1128
909 1 69.0594 52.6296 96.5589
910 1 66.9221 54.0884 95.2955
911 2 71.8659 53.2025 92.5098
912 4 71.9372 53.4742 95.3862
913 4 46.897 56.6405 94.547
914 2 46.5288 59.3362 94.1105
915 1 47.0888 58.8527 96.7199
916 4 49.0088 55.5683 92.7654
917 1 49.1284 58.2214 94.3298
918 2 50.2481 55.3124 95.1149
919 1 51.7703 56.725 93.1728
920 1 51.6585 57.6934 95.9154
921 2 52.7755 55.2335 95.3166
922 2 48.8558 56.6324 96.696
923 2 53.7147 58.6155 92.9024
924 1 54.792 56.5374 94.2873
925 1 56.5922 58.6581 93.2772
926 1 54.2618 59.325 95.5353
927 1 56.8432 58.0134 96.8087
928 2 57.578 56.5193 94.6499
929 4 59.5896 59.1169 92.4168
930 1 58.9473 59.3277 95.1736
931 1 60.2779 56.7838 94.5386
932 2 61.9587 59.4072 93.043
933 2 61.9743 56.1193 96.8937
934 1 63.0303 55.8752 94.2448
935 2 65.9118 56.4083 94.2153
936 1 64.3011 58.038 92.8086
937 1 62.3694 58.7837 95.5002
938 3 64.9084 58.4254 95.3845
939 1 64.6273 56.2228 96.7055
940 2 69.7915 55.2102 96.0435
941 1 67.3149 59.0923 94.9825
942 1 68.5052 56.3504 93.5518
943 1 69.9218 58.9022 93.0613
944 3 69.7316 57.7732 95.5
945 1 67.5327 56.6125 96.6054
946 1 71.4867 56.0675 94.1129
947 1 73.1814 58.4786 92.9813
948 2 74.3286 56.216 94.4543
949 1 72.2593 58.6007 95.766
950 1 75.217 58.6469 95.2257
951 1 73.0457 55.9211 96.8961
952 4 77.5136 57.618 94.1199
953 1 77.6265 59.492 96.8677
954 2 44.7958 63.2157 92.5078
955 1 46.539 62.0447 94.2139
956 2 47.0907 63.9025 96.0167
957 3 48.4935 60.4997 92.9503
958 1 49.239 63.6388 93.9956
959 1 49.0383 61.0999 95.6512
960 1 51.5108 60.0069 93.8619
961 2 51.9606 62.6053 93.9046
962 1 51.3281 63.3229 96.4275
963 3 56.4542 60.6513 95.0033
964 1 54.4333 61.3299 93.2576
965 3 53.723 62.0244 95.6835
966 2 55.9257 62.9305 96.0216
967 2 56.3358 63.298 93.6499
968 2 59.909 62.6698 92.7451
969 1 57.6495 61.3101 92.5139
970 1 58.4857 62.2198 95.3394
971 3 60.7635 61.0557 94.321
972 1 60.9038 63.8474 95.1376
973 1 64.8981 60.6631 93.6831
974 1 62.5341 62.0446 92.4386
975 2 62.9683 61.952 95.0891
976 1 65.677 62.879 95.4731
977 3 65.7791 63.1734 92.808
978 1 64.4261 60.5807 96.9129
979 1 69.8545 60.5426 95.5318
980 2 67.61 61.1019 93.2296
981 1 68.5509 63.0886 94.7065
982 3 70.1954 61.732 92.8699
983 3 71.1484 62.7758 95.1169
984 3 71.1471 64.0844 93.1335
985 3 74.3569 60.8711 94.2896
986 3 72.0181 60.7057 94.0199
987 1 73.5887 63.4622 94.4113
988 1 76.0758 62.1241 95.8553
989 1 72.9028 61.4377 96.7385
990 3 72.3466 64.1773 96.7118
991 1 76.1414 62.5211 92.8509
992 2 77.2677 60.3079 94.2732
993 1 79.1711 61.8715 93.2702
994 1 79.0677 62.2129 96.3853
995 1 44.4033 64.2532 95.0803
996 3 44.2488 67.0886 94.4496
997 5 46.6344 65.0634 93.5331
998 1 46.5665 67.8816 93.1912
999 2 44.3075 68.8858 96.2567
1000 1 46.1281 66.4181 96.2216
1001 3 49.1511 68.6136 93.0041
1002 1 48.876 66.6275 94.8052
1003 3 51.4761 65.0432 94.3487
1004 1 51.528 67.527 93.539
1005 2 52.7922 68.7884 95.9008
1006 4 49.1407 64.8955 96.8879
1007 1 51.5582 66.3614 96.5853
1008 1 53.9065 64.4244 93.3601
1009 2 53.7335 64.4733 96.2315
1010 2 53.6156 66.6918 94.9335