# LAMMPS data file written by OVITO Pro 3.7.7
1742 atoms
5 atom types
0.0 250.0 xlo xhi
0.0 90.51 ylo yhi
0.0 181.02 zlo zhi

Atoms  # atomic

1 1 37.6784 30.797 80.6345
2 1 41.2831 29.2873 80.1783
3 1 31.6887 34.0574 79.837
4 4 33.4613 31.633 79.8594
5 2 34.4757 34.3463 80.1608
6 2 35.925 32.4964 79.1498
7 1 38.5729 33.2945 79.1176
8 1 36.2846 35.1999 78.2033
9 2 38.7279 34.6573 76.627
10 1 40.6535 35.4457 80.3741
11 2 44.0468 33.517 78.1298
12 1 41.2884 34.2263 77.7396
13 1 41.4074 32.2742 79.9125
14 2 43.2714 34.3054 80.362
15 1 44.4052 31.6661 80.1828
16 2 46.6784 33.1407 78.9769
17 5 48.3751 31.8128 80.75
18 1 48.9313 34.7937 80.8663
19 2 30.087 36.8649 80.5211
20 4 33.3376 35.9424 78.1974
21 2 35.1778 38.5506 77.7885
22 4 32.5965 36.3779 81.0922
23 1 32.7052 38.7406 79.3074
24 5 35.0723 36.9786 80.1062
25 1 35.2766 39.7621 80.4018
26 4 37.6392 37.2652 76.4644
27 1 37.5854 38.1869 79.1783
28 3 38.803 35.968 78.6937
29 1 40.6915 37.0736 77.3004
30 1 40.4662 38.6136 79.9501
31 1 39.4127 39.7105 77.095
32 1 37.4441 35.5255 81.0025
33 1 43.5342 36.229 77.5607
34 1 42.6843 39.267 78.1219
35 2 42.9552 36.9876 80.0406
36 2 42.8343 39.3207 81.0807
37 1 45.6377 35.653 79.549
38 1 45.5424 38.4958 78.2761
39 1 48.0074 37.6861 79.9175
40 1 50.164 40.074 80.1526
41 3 31.333 41.1415 79.8325
42 1 33.8127 41.5367 78.631
43 1 32.5916 43.6247 80.3738
44 4 35.1619 44.5405 78.9078
45 1 35.5458 42.6967 81.029
46 1 36.8414 41.078 78.1998
47 4 38.9027 42.8325 77.0291
48 1 38.0565 40.4178 81.1059
49 4 38.1319 43.2759 79.7886
50 2 39.5996 41.2505 79.1753
51 5 41.6763 41.8176 77.026
52 5 40.8357 44.0395 78.6917
53 1 43.8268 43.7209 78.5192
54 1 42.0049 41.6598 79.9191
55 5 44.6558 41.2631 77.1108
56 1 44.8751 41.0479 79.9482
57 4 47.4437 40.4279 80.8233
58 4 47.4903 40.8475 78.2159
59 2 46.5186 43.3089 79.1842
60 1 48.8702 42.8243 80.8699
61 1 51.8327 42.4723 80.9104
62 4 35.8779 47.3743 79.1796
63 4 33.1199 46.8618 80.3039
64 4 40.439 46.7346 77.8218
65 4 38.0222 45.637 78.5241
66 4 38.394 48.6002 78.5076
67 1 40.1286 45.8932 80.78
68 2 38.3465 48.2667 81.1067
69 1 45.0014 46.0462 80.3492
70 3 42.5392 46.2553 79.2152
71 1 41.062 48.6598 79.9847
72 1 44.1779 48.9358 80.5815
73 5 47.9388 45.5045 80.4834
74 2 47.1842 48.1699 80.5412
75 1 33.6118 49.8063 80.8075
76 1 36.5292 50.2597 80.2993
77 1 39.3665 51.1232 79.7634
78 1 42.3007 51.4881 80.7573
79 2 45.0274 51.6173 81.1521
80 2 36.0277 24.9687 85.6946
81 2 39.7933 25.7404 82.5042
82 1 38.7573 24.3535 84.9309
83 1 41.8236 25.3354 84.4189
84 4 29.8324 30.2425 83.9528
85 5 34.4109 27.7556 83.5479
86 1 32.1333 28.6664 85.2282
87 1 34.9719 30.1391 85.1901
88 3 36.0913 27.4746 85.6416
89 5 32.424 29.7081 82.3813
90 1 35.0563 30.7094 82.1716
91 2 36.1391 28.298 81.4192
92 1 36.9712 26.2391 83.3658
93 2 37.0153 28.9208 83.7712
94 1 38.8861 28.283 81.8213
95 1 39.3286 27.2214 84.8102
96 4 39.5152 29.8493 84.2852
97 2 42.5999 30.7581 82.037
98 1 44.2363 28.8093 81.1927
99 1 41.7965 28.1171 82.8917
100 1 44.5511 29.6587 84.0199
101 2 44.3314 26.9688 83.8059
102 1 42.352 27.9301 85.812
103 4 46.8715 28.1844 82.7329
104 2 46.2427 30.7785 82.1133
105 5 47.1972 29.6158 85.3024
106 1 46.9818 26.7023 85.354
107 1 49.6714 28.104 85.1187
108 1 48.8753 30.5214 83.3321
109 2 51.3188 30.5508 84.9824
110 2 25.9684 32.8641 85.0936
111 1 30.579 34.8437 82.5004
112 1 28.3085 33.2132 83.7379
113 4 30.4846 31.9749 81.7559
114 4 30.5424 32.9253 85.4752
115 1 33.1761 33.1321 82.2518
116 4 32.4431 31.501 84.4729
117 1 32.6534 34.9462 84.7527
118 2 34.9378 32.81 84.2981
119 2 35.3331 35.0312 85.653
120 2 36.2013 33.1186 81.5647
121 5 37.466 31.4436 83.4739
122 2 38.9164 33.2918 81.7935
123 1 37.2181 34.2197 83.8083
124 4 40.0919 31.1076 82.2001
125 3 39.4688 35.4361 83.0335
126 1 39.7311 33.0301 84.8361
127 1 41.5908 33.767 82.6065
128 1 41.9999 31.0093 84.6563
129 1 44.1764 32.5253 83.1896
130 2 42.84 34.1144 84.9897
131 3 44.4672 31.7366 85.8441
132 1 45.8464 34.6235 84.565
133 1 46.2616 33.6023 81.6036
134 2 46.6389 32.0168 84.2933
135 2 48.3992 33.3708 83.1649
136 4 49.6226 32.7595 85.2393
137 1 50.8141 32.3703 82.3286
138 4 52.5416 32.9141 84.9477
139 1 51.1915 35.0964 83.0523
140 1 26.5571 35.6413 84.6478
141 2 26.6648 38.2909 83.362
142 2 24.9884 37.8623 85.3586
143 4 27.7809 35.5531 81.8989
144 5 29.2091 37.5121 83.1941
145 1 29.7865 40.0435 84.5927
146 1 31.1151 39.1307 81.7224
147 1 29.5766 35.6122 85.2772
148 2 31.9165 37.2216 83.501
149 1 32.7089 40.0161 84.2183
150 2 33.7812 38.4495 82.1911
151 1 34.8564 35.5742 82.6838
152 1 34.5041 37.6079 84.7535
153 2 36.3183 38.0773 82.3414
154 1 38.233 39.8737 84.0945
155 4 38.9012 37.7813 82.1411
156 1 37.4601 36.9648 84.5897
157 1 40.4187 35.8496 85.523
158 4 40.6839 38.7253 84.774
159 1 44.125 35.701 82.4577
160 1 41.6545 37.1261 82.6486
161 1 43.5234 39.2392 83.7609
162 1 45.2249 38.2254 81.2547
163 1 43.454 36.6856 85.446
164 2 46.8462 36.232 82.0098
165 2 45.7396 37.5487 83.9952
166 1 48.0482 38.6856 82.9666
167 1 48.5251 35.9201 83.9877
168 2 46.5801 39.7529 85.0596
169 2 48.7217 37.9532 85.6616
170 1 53.8157 35.5274 84.3642
171 4 50.4724 37.4332 81.3822
172 1 51.0926 38.0188 84.1785
173 1 54.2893 38.5461 84.1978
174 5 52.578 39.8115 82.0372
175 2 53.0236 37.0851 82.1829
176 1 28.3031 40.15 82.0369
177 4 27.13 44.2087 85.0307
178 3 28.4293 42.3699 83.6291
179 1 26.7589 40.7118 84.8875
180 1 30.0859 44.3949 84.2588
181 4 29.8251 44.4861 81.3104
182 1 30.7622 42.0228 82.3769
183 3 33.211 40.9948 81.5053
184 2 31.5459 42.3868 85.1272
185 1 33.3894 43.0992 83.2187
186 1 36.0264 44.2065 84.0146
187 1 35.4759 40.6429 83.3326
188 2 33.1308 44.4623 85.5091
189 2 40.1643 43.1625 81.4717
190 5 37.9461 42.5844 82.7844
191 2 39.6206 42.2682 84.7819
192 3 37.0065 42.015 85.2894
193 1 40.8063 40.6221 82.5185
194 1 42.7289 44.2972 81.2007
195 1 41.9523 43.1824 83.7225
196 3 43.4669 41.6285 82.1473
197 1 44.6098 41.8933 84.4928
198 3 45.6756 40.3968 82.621
199 1 45.696 43.4125 81.8046
200 1 49.0093 43.6795 85.8108
201 2 50.1032 40.4094 82.8061
202 1 47.6666 41.9076 83.4923
203 3 48.46 44.6196 83.0603
204 1 49.3095 40.6108 85.4664
205 4 46.3736 44.2247 84.6506
206 2 52.3078 43.5389 85.4808
207 1 50.62 42.9219 83.4992
208 3 53.3898 42.197 83.0894
209 1 52.2694 40.6938 84.9217
210 3 55.029 41.0746 84.6711
211 1 54.9589 43.7449 84.6768
212 4 29.3705 46.8436 83.115
213 4 29.322 48.7171 85.2547
214 4 32.1019 45.6907 82.5796
215 4 31.7452 48.5213 82.7612
216 2 34.5872 45.2099 81.7889
217 1 35.5449 47.8607 81.9307
218 1 34.353 46.6706 84.3548
219 4 31.5623 46.8476 85.0313
220 1 39.2574 44.9336 83.7042
221 1 37.2757 45.4952 81.4627
222 1 40.0986 47.7898 83.0758
223 2 37.5131 47.3465 83.7093
224 2 36.7098 46.1651 85.6707
225 1 36.1723 48.7569 85.8663
226 3 42.5162 46.9498 81.5723
227 2 44.1387 45.0436 83.4701
228 3 41.788 45.8276 83.6038
229 3 42.1484 49.3198 82.2943
230 1 43.9944 47.8556 83.5159
231 2 41.712 49.0835 84.7177
232 4 45.258 46.2725 85.7216
233 1 46.5496 46.5587 82.8318
234 3 48.5403 49.2453 84.2534
235 1 49.4467 47.4586 82.5121
236 2 46.1789 48.6404 85.1983
237 1 48.2347 46.6503 85.272
238 1 52.8336 44.8195 82.8802
239 2 50.4867 45.0545 81.5282
240 3 50.5526 45.5724 84.1801
241 2 52.1703 47.4207 83.4383
242 1 50.7447 47.9446 85.8219
243 1 53.2863 46.046 85.6771
244 1 53.4581 49.0351 85.7293
245 5 32.0552 51.504 82.6749
246 1 34.2624 49.8015 83.8255
247 1 34.8489 52.2399 82.1306
248 2 33.6695 52.6739 84.5954
249 1 31.6809 50.3799 85.3231
250 2 40.3112 53.5201 81.3976
251 2 37.2384 49.8429 82.9014
252 1 37.6959 52.6636 81.8407
253 1 39.3663 53.2145 84.2323
254 1 36.4989 51.7148 84.7053
255 1 39.9442 50.72 82.566
256 1 38.9116 49.8795 85.1683
257 1 43.8174 50.8854 83.578
258 3 41.8415 52.6708 83.1254
259 1 44.2019 53.8244 83.4193
260 5 41.5023 51.5083 85.3334
261 2 43.7375 52.6188 85.8524
262 5 48.964 50.5075 81.8995
263 1 46.3847 49.6271 82.6873
264 1 46.9086 52.6153 82.8717
265 1 46.2111 51.3472 85.4491
266 1 49.1296 51.8914 84.7324
267 1 51.1799 49.9588 83.723
268 1 36.3473 54.5874 84.0856
269 1 39.0259 56.1419 85.6024
270 5 41.6194 55.153 84.1235
271 5 46.3559 54.3055 85.3765
272 4 30.8317 26.0373 86.6378
273 1 32.5437 25.2916 89.0006
274 2 34.5896 23.7031 87.8079
275 4 36.0802 22.2114 89.7926
276 1 35.8678 25.9184 88.5602
277 2 40.3734 25.4371 86.712
278 1 37.5986 23.7169 87.5706
279 1 40.2783 23.267 88.5286
280 2 39.3862 25.8694 88.9182
281 1 37.7788 24.4486 90.4901
282 3 42.7732 23.2109 89.5891
283 5 42.4727 23.5466 86.7444
284 2 44.8362 23.9822 88.4193
285 1 42.3025 25.9876 88.4496
286 1 44.3895 25.6672 86.2671
287 1 50.0392 24.4173 90.1708
288 1 46.9943 24.1297 90.107
289 2 47.3911 24.9641 87.4524
290 1 49.9647 26.1679 87.4357
291 1 29.3412 28.5424 86.4651
292 2 29.6039 29.9797 88.907
293 1 27.0487 29.4426 88.2105
294 4 28.903 27.0251 88.9135
295 2 30.8372 30.7569 86.7419
296 3 33.1771 30.2641 87.1445
297 1 33.7446 26.429 86.3975
298 1 33.73 27.4613 90.5475
299 1 31.7936 28.3301 88.3352
300 1 35.1128 28.6447 87.9476
301 3 33.6163 29.9906 89.6956
302 1 37.6766 29.3855 86.497
303 4 40.1607 28.1081 87.4204
304 1 37.9138 28.0857 89.2097
305 3 37.9139 26.3974 86.9012
306 1 40.7704 30.4631 88.953
307 3 40.6699 27.912 89.9144
308 1 43.2457 28.6986 89.2019
309 1 45.0528 28.7565 86.799
310 3 42.6647 30.2144 87.0774
311 2 48.2795 26.4276 89.4662
312 1 46.7619 29.5893 89.2039
313 3 47.9513 28.0444 87.415
314 1 45.7175 26.6885 88.8727
315 1 49.4755 30.4778 87.0624
316 1 49.8794 28.6119 89.3133
317 2 53.1352 29.1952 89.4372
318 1 52.2413 26.6115 89.4187
319 1 51.9171 28.6968 87.0797
320 1 55.3086 30.7799 89.9448
321 4 24.4732 34.3507 86.7933
322 2 26.044 34.1756 89.1022
323 3 25.9462 32.0108 87.5124
324 1 23.7018 35.4118 89.639
325 4 24.071 32.4313 89.3215
326 2 29.364 32.3347 88.2967
327 1 27.1228 31.8323 89.8793
328 1 28.1207 31.2414 86.122
329 1 27.7339 34.0956 86.9982
330 1 28.6658 34.4261 89.8964
331 3 31.1301 33.8522 90.3284
332 5 30.9688 34.463 87.7214
333 1 31.8835 31.7338 89.0606
334 1 33.495 32.9016 86.7624
335 3 33.252 34.0909 89.2569
336 2 35.1956 31.3383 88.1811
337 1 35.8183 34.1186 88.2313
338 1 37.6957 31.1959 89.0908
339 3 39.8863 30.9135 86.5486
340 1 36.9696 32.2871 86.2114
341 1 39.5342 33.2302 87.946
342 3 37.9093 34.8796 86.3875
343 1 37.6801 33.9963 90.3857
344 3 44.6079 31.029 88.2825
345 3 43.9982 35.0214 89.8117
346 1 42.9509 32.5631 89.7102
347 4 42.1643 32.6634 86.965
348 1 44.7566 34.1773 87.3106
349 4 41.9554 35.082 87.9987
350 2 48.7644 31.4161 89.58
351 1 46.1806 32.7187 89.6455
352 5 47.897 34.6163 86.5161
353 1 46.9224 31.9242 86.961
354 5 48.8537 33.9177 88.9171
355 1 50.762 35.4428 86.085
356 3 51.3689 30.8275 89.2255
357 3 53.3119 32.8981 89.6604
358 5 51.1211 32.8695 87.6243
359 1 53.4873 31.2891 87.5104
360 1 53.693 34.5213 87.2817
361 1 51.5557 35.4152 89.0818
362 3 55.5208 33.1512 88.6885
363 4 57.7365 33.9668 89.7307
364 4 23.2396 37.6281 87.6848
365 1 24.6686 38.3684 90.2068
366 1 26.0212 36.5693 87.763
367 1 25.5063 39.6345 87.398
368 1 31.2981 37.8343 86.032
369 2 27.3105 38.5714 89.1561
370 1 27.8219 38.1099 85.9199
371 1 29.2621 36.8635 88.2715
372 2 29.4917 39.5638 87.3866
373 1 29.6876 39.4638 90.1278
374 1 31.6956 36.4099 90.0281
375 3 34.7934 35.6849 90.2168
376 2 33.6509 38.9016 86.8786
377 1 33.4001 36.1219 87.4642
378 3 31.696 38.5398 88.5581
379 1 34.3026 38.1796 89.459
380 1 39.1762 36.064 88.474
381 1 36.2118 39.6269 86.356
382 1 36.3598 36.9767 87.5527
383 2 38.8112 38.0238 86.605
384 2 36.6092 39.6889 89.2001
385 1 39.1391 38.8486 89.2427
386 1 37.074 37.0811 90.5328
387 1 41.7694 37.0309 90.0994
388 2 43.9435 36.9432 88.2002
389 1 44.4701 39.5156 86.7655
390 1 41.5864 38.2443 87.3847
391 1 43.4978 39.5045 89.6435
392 1 46.5638 35.6982 89.5557
393 2 45.8247 38.257 89.1293
394 1 46.2816 37.0324 86.6264
395 1 49.0019 36.883 88.1825
396 1 47.7347 39.5857 87.7039
397 2 52.7863 37.1151 86.1954
398 1 51.0476 38.0585 90.4038
399 2 53.7864 39.3328 86.7644
400 1 51.0495 38.8245 87.2454
401 2 53.2334 37.4184 88.5835
402 1 55.3874 39.0017 88.9146
403 1 55.4948 36.9674 86.5089
404 3 57.5742 37.6156 88.1571
405 1 55.5917 35.9027 89.3203
406 1 58.1611 39.7941 89.7441
407 1 56.5958 39.8403 86.4606
408 4 26.0765 43.9166 90.0393
409 4 22.9408 40.4884 88.9288
410 1 26.0853 42.5984 87.2555
411 4 23.7123 43.4991 88.4171
412 5 25.4261 41.1077 89.8655
413 3 27.7909 40.9076 88.4183
414 1 29.0281 42.2536 86.4033
415 4 28.3231 44.0635 88.5304
416 5 30.3915 42.2939 89.1975
417 1 30.9776 44.5175 87.1365
418 1 32.5162 40.4867 90.3452
419 1 31.8174 40.8473 87.2238
420 1 34.3454 41.9852 85.9041
421 1 33.3647 43.2041 88.5349
422 2 34.4369 40.6879 88.3555
423 3 35.5688 44.4676 89.166
424 3 35.4958 44.2458 86.692
425 1 36.6993 42.2822 88.1037
426 1 38.2494 44.0743 86.4009
427 1 38.9764 40.6891 86.9147
428 1 38.9707 41.7472 90.0354
429 3 40.2609 42.6635 87.903
430 1 41.9003 41.1454 85.9178
431 2 43.865 43.9764 85.8985
432 2 41.2828 40.621 88.5986
433 3 41.7809 43.961 89.2415
434 1 43.5375 42.2614 88.165
435 1 41.2679 44.3538 86.3325
436 3 49.8616 40.1769 89.2592
437 2 48.5762 42.2408 88.214
438 1 46.3495 42.1575 86.7858
439 2 45.8596 40.7763 89.1412
440 1 49.7152 44.6545 88.771
441 1 46.0609 43.609 89.6046
442 1 52.8276 40.2908 89.284
443 2 52.6027 44.2444 88.1633
444 1 51.1186 42.0605 87.4327
445 2 53.7066 42.8743 89.943
446 1 50.9638 42.3443 90.413
447 1 54.0809 41.9995 87.0455
448 3 56.7312 42.5344 86.3639
449 1 55.3414 44.6534 87.5515
450 1 56.2568 42.0094 89.0323
451 4 57.7292 44.3685 89.7496
452 4 26.4036 47.9288 90.0675
453 4 26.1832 45.6721 87.8472
454 4 24.3187 45.899 90.3507
455 4 28.6621 46.1843 86.3028
456 4 27.8702 48.7137 87.7535
457 4 28.9147 46.6267 89.1604
458 1 31.1659 47.759 87.6105
459 1 33.9001 46.1913 87.4531
460 3 33.4229 48.5607 86.2013
461 1 34.703 48.8035 88.6196
462 1 31.9795 45.5928 89.7361
463 3 32.5172 48.1295 90.0943
464 2 34.5859 46.5363 90.1924
465 1 39.2355 44.8545 89.0592
466 1 36.8756 46.5743 88.2811
467 2 38.2052 48.8638 87.6685
468 1 39.4424 47.7871 89.707
469 1 39.3673 46.9461 86.0255
470 1 42.5945 46.8962 85.8778
471 2 41.7862 49.023 90.0598
472 1 40.9627 49.1998 87.3764
473 2 43.1887 47.8878 88.3397
474 3 41.1231 46.4364 88.0195
475 1 43.892 45.2882 88.2653
476 4 44.5128 47.0294 90.474
477 1 41.826 46.2582 90.5139
478 4 46.9925 45.0865 87.3988
479 1 46.0234 48.0054 87.8797
480 3 48.98 47.1282 87.8469
481 4 47.2092 46.3284 89.8223
482 1 49.7907 47.3607 90.5173
483 2 47.9064 49.1475 89.5616
484 5 54.3758 45.7295 89.9517
485 2 50.5153 49.092 88.5189
486 3 50.8427 45.3547 86.5415
487 1 52.0172 46.8803 88.3795
488 2 54.5992 47.4444 87.7796
489 4 56.8684 46.9112 88.925
490 4 27.4106 50.795 89.8134
491 1 29.6289 51.0056 87.3283
492 5 28.8656 53.1964 89.0525
493 2 31.1747 52.0475 89.3404
494 1 30.0849 49.4446 89.7944
495 3 32.1816 50.1444 88.035
496 2 35.0283 53.6873 86.5112
497 3 33.5342 52.927 88.971
498 3 35.2943 51.3379 89.3485
499 1 31.9228 53.0881 86.8844
500 1 34.2631 51.17 86.8313
501 1 36.0906 54.018 89.0681
502 1 33.0634 50.668 90.4926
503 1 37.0886 49.5799 90.2481
504 1 37.175 51.2472 87.6877
505 3 39.6439 51.7578 86.9926
506 3 39.1315 53.5008 88.765
507 1 37.7522 53.7744 86.5731
508 1 39.7232 50.9463 89.5588
509 2 37.5941 52.3191 90.437
510 1 40.9759 54.0895 86.7793
511 1 43.8885 49.7882 86.4891
512 1 44.3316 49.9504 89.7028
513 1 42.2985 51.7791 88.2817
514 1 45.1177 53.0532 88.127
515 2 43.7667 52.5325 90.4971
516 1 48.4334 49.6376 86.8243
517 2 46.4381 50.7606 88.1735
518 4 47.9538 53.0066 87.1918
519 1 49.3315 51.5152 89.2095
520 1 47.6127 54.0842 89.8494
521 1 53.3628 49.7634 88.674
522 1 51.2911 50.9507 86.7175
523 3 52.0885 52.1849 89.2534
524 4 50.5747 53.635 87.2836
525 1 31.3233 54.7503 89.433
526 1 33.7731 55.5677 88.0174
527 3 33.7668 54.7223 90.5808
528 1 36.146 56.959 89.3114
529 3 36.2135 56.0047 86.6301
530 2 38.7419 57.9913 89.6116
531 3 38.195 55.7962 88.1719
532 1 40.6467 56.1469 88.9505
533 3 42.7912 54.4427 88.7566
534 1 43.7609 55.2626 86.2957
535 2 41.5678 56.9823 86.5091
536 1 43.5762 57.0662 88.7222
537 1 41.7246 58.4862 90.5164
538 1 44.7113 54.9897 90.4976
539 2 46.051 55.7116 88.0905
540 5 50.4837 54.2085 90.0297
541 2 31.2013 25.386 94.6627
542 1 34.2818 24.5178 94.0377
543 3 33.769 22.4025 92.5694
544 5 32.0455 25.0069 92.0697
545 1 34.7736 24.5348 91.0525
546 1 36.5052 22.5027 92.8526
547 1 39.3287 23.5758 93.0409
548 5 37.0481 25.4135 93.1937
549 2 39.0979 22.0621 90.7433
550 3 40.7373 26.0278 93.5547
551 1 44.726 22.8228 91.7123
552 4 43.9469 25.3353 90.6837
553 1 40.9983 24.8151 90.9131
554 2 41.7417 22.2586 91.8093
555 3 41.2502 22.2989 94.3843
556 1 42.7614 24.4076 93.3557
557 1 43.7834 21.8026 94.4438
558 2 45.9079 25.5093 92.2315
559 1 47.5602 23.1563 92.8699
560 3 48.3686 25.507 92.0043
561 1 45.5178 24.1261 94.7748
562 1 50.2933 24.4121 93.3842
563 1 52.63 25.9764 92.3328
564 2 25.6549 29.5645 90.6217
565 5 31.236 29.6127 90.9959
566 1 28.3203 28.9481 91.1086
567 1 29.2075 26.9121 93.2191
568 2 27.1936 28.6895 94.1867
569 3 29.4516 29.6354 93.4288
570 2 30.7917 26.9921 90.6811
571 3 33.5229 29.9887 92.1435
572 1 32.0412 27.818 93.0107
573 1 34.8576 27.4061 93.3829
574 1 35.3985 30.3629 93.8843
575 1 35.9382 29.5707 90.9558
576 1 31.6998 30.8177 94.0185
577 1 38.7843 27.296 94.942
578 2 37.249 28.376 93.0169
579 1 39.0659 26.8772 91.7567
580 1 39.104 29.8334 91.4757
581 1 38.3385 30.3657 94.3825
582 3 36.3556 26.8501 91.0814
583 2 40.5713 28.6636 93.4646
584 1 43.1232 29.5834 93.8858
585 1 44.3622 26.8864 93.9902
586 1 42.3414 27.4207 91.8596
587 3 41.8288 30.0961 91.402
588 2 44.9875 27.7782 91.2598
589 1 44.4742 30.4676 91.1857
590 2 45.7548 29.0813 93.2117
591 1 47.4404 26.4687 94.3434
592 3 48.198 29.1516 93.7775
593 1 47.6799 27.9613 91.523
594 3 50.1998 26.7782 91.1266
595 1 49.968 30.2647 91.7419
596 1 50.2251 27.3709 93.5997
597 3 50.5439 29.9773 94.1658
598 3 51.8577 28.4644 91.4906
599 2 52.6648 26.1905 95.1503
600 1 54.5636 28.1717 91.5042
601 1 52.8536 28.7161 94.033
602 2 55.0792 27.2658 94.1962
603 1 55.3765 30.446 93.37
604 4 23.8678 31.201 91.6958
605 1 22.5399 34.5094 92.2879
606 1 25.3687 33.7823 91.7975
607 2 26.4761 33.5511 94.4244
608 4 24.1586 35.1318 94.6053
609 1 23.9064 32.3836 94.2178
610 1 29.603 31.8536 91.4687
611 1 26.7687 31.1402 92.7633
612 3 27.9041 34.0074 92.4262
613 1 29.0357 32.2631 94.4021
614 1 28.9054 35.1674 94.7518
615 2 30.3335 34.3322 92.5203
616 3 32.2469 32.2078 91.7999
617 1 31.6686 33.9088 94.7777
618 5 34.1127 32.7636 93.6383
619 1 32.9981 34.8796 92.1166
620 5 35.8105 34.5056 92.3877
621 1 34.7114 32.3599 90.6921
622 4 37.2226 33.1715 94.2947
623 4 39.7638 33.7858 93.4766
624 2 37.2217 31.8235 92.0569
625 1 40.2661 32.5918 90.9851
626 2 39.9223 35.3681 90.9798
627 4 40.8422 31.4271 93.6232
628 3 42.9843 32.1756 92.5272
629 5 42.3036 34.6722 91.7563
630 4 42.351 34.0275 94.3797
631 1 45.1537 31.7262 94.3678
632 1 45.1082 33.8283 92.066
633 1 47.1755 31.0397 92.0104
634 1 48.1818 31.5653 94.786
635 1 48.2673 33.7422 91.9134
636 4 46.8046 34.1921 94.4959
637 2 49.1865 35.2727 94.0846
638 3 53.5713 35.0482 90.8309
639 1 52.918 30.9503 91.6466
640 1 50.9268 33.0072 90.7218
641 1 50.6065 32.8423 93.7009
642 2 52.6929 31.4075 94.3361
643 3 52.9944 33.4022 92.7292
644 1 54.8454 33.018 94.7628
645 1 55.4041 33.2925 91.6256
646 4 57.5907 31.3882 91.7302
647 4 58.236 34.2075 92.3755
648 4 57.669 32.3764 94.5988
649 4 56.692 35.1507 94.3448
650 2 24.4051 36.4529 92.0859
651 1 22.582 37.4402 93.8054
652 4 22.0007 37.4632 90.9749
653 3 24.9324 38.6645 93.2373
654 1 26.5477 36.4166 93.6234
655 1 26.6764 39.7903 95.1833
656 4 26.6178 36.2744 90.6407
657 2 23.2314 40.0348 91.8924
658 1 27.1846 39.0275 91.8708
659 4 28.8295 38.1015 94.3144
660 1 29.266 36.7531 91.7374
661 1 30.8676 39.3888 92.9306
662 2 31.2543 36.5652 93.6639
663 2 34.9803 39.5026 91.6524
664 4 32.9977 37.8782 92.1403
665 1 32.965 38.9942 95.2053
666 1 33.732 36.0618 95.0568
667 5 35.4449 37.1762 92.873
668 1 35.6695 39.6391 94.2845
669 4 38.1046 37.8429 94.2575
670 4 38.2731 35.7601 92.8427
671 1 37.6455 39.8143 91.9006
672 3 39.5274 37.8118 91.7856
673 4 40.018 35.776 95.2201
674 1 40.589 40.1269 93.189
675 4 36.5687 35.6983 94.9363
676 4 44.3224 35.7185 93.9804
677 3 41.0821 39.4377 90.7959
678 1 44.4468 37.1988 91.3629
679 1 41.7985 37.22 93.1865
680 1 42.9071 39.5612 95.1426
681 3 43.1081 39.4944 92.3105
682 2 44.8568 38.2568 93.9232
683 2 49.1845 35.947 90.7257
684 1 47.986 38.5232 90.616
685 1 47.0364 36.4614 92.5639
686 1 45.7602 40.0124 92.0699
687 4 47.6093 38.977 94.0679
688 2 49.5796 37.4764 92.7766
689 1 49.9551 40.1153 92.3276
690 1 51.3732 35.5487 92.2664
691 1 53.8405 37.6865 91.2796
692 1 52.1902 38.1751 93.7496
693 5 54.0225 35.65 93.5733
694 3 56.4184 38.257 91.1498
695 1 58.3538 36.7529 90.5971
696 3 56.0769 35.9058 91.9033
697 4 58.6111 36.8726 93.5216
698 1 58.0752 39.6445 92.7606
699 1 55.7181 37.9856 93.6685
700 1 23.4133 42.7648 91.1167
701 1 23.3031 40.2895 94.727
702 2 23.277 42.8467 93.7852
703 1 25.5691 41.3782 92.8325
704 1 25.3787 44.4025 92.8249
705 1 27.9097 41.8878 90.8773
706 3 28.5389 40.8018 93.4347
707 1 28.1256 43.5164 93.4204
708 3 30.293 41.7121 91.8579
709 4 29.5677 44.38 90.9833
710 1 30.9082 42.1898 94.4427
711 2 34.6215 44.4498 91.5084
712 5 33.3652 41.1272 93.142
713 1 33.385 43.9774 94.3953
714 1 32.3056 43.3074 91.5604
715 1 35.2838 41.9129 90.6735
716 1 36.089 42.5308 93.4627
717 3 38.7244 42.1797 92.6933
718 4 38.415 40.297 94.81
719 1 38.5587 44.7352 93.7699
720 2 40.202 43.9707 91.4665
721 1 37.3398 44.1058 91.129
722 3 44.3699 41.7975 90.7518
723 1 41.7809 41.9401 91.0041
724 1 43.7182 44.254 91.5201
725 1 43.5686 41.9288 93.4327
726 5 40.9243 42.9155 93.9588
727 2 45.3863 43.6768 94.4337
728 1 47.942 41.5744 90.6739
729 1 48.5571 44.4131 91.5145
730 3 46.0253 42.9035 92.2151
731 1 47.9567 41.9739 93.6968
732 2 52.6219 40.2775 91.9622
733 3 50.2866 42.9287 92.8957
734 4 51.2509 41.1693 94.5386
735 1 52.9534 42.9412 92.7934
736 1 54.1376 40.5122 94.3419
737 4 54.9136 43.8354 94.7174
738 1 55.2856 40.6661 91.5371
739 2 56.4542 41.7721 93.8071
740 1 57.8089 44.1692 93.7485
741 2 57.8734 42.1338 91.5473
742 1 55.6164 43.7271 91.7453
743 4 59.1331 41.6885 94.6802
744 1 23.5182 45.3354 95.0585
745 5 24.7312 47.2599 92.8845
746 3 22.8255 45.1278 92.4397
747 4 27.285 47.1785 94.0677
748 5 28.1822 49.1305 92.1018
749 4 27.454 46.0688 91.6376
750 4 30.0159 47.7666 94.0222
751 4 30.2048 47.0977 91.4963
752 5 30.712 45.0124 93.5531
753 1 32.9615 46.5481 92.5133
754 5 34.7734 48.7419 91.8134
755 4 35.4704 48.575 94.5115
756 1 35.7534 45.8081 93.5332
757 4 32.7986 48.5819 94.6704
758 1 38.2529 47.9055 93.6591
759 3 39.4375 46.2651 91.8387
760 4 36.9583 46.9245 91.1989
761 1 40.526 46.3023 95.2522
762 1 41.3562 48.0148 92.7954
763 1 44.1889 46.5107 93.5366
764 2 41.6613 45.2465 93.0419
765 4 43.9601 49.2235 92.5576
766 1 47.636 44.9336 94.3137
767 3 46.85 47.7124 94.4228
768 1 46.5038 48.3096 91.8378
769 3 48.5908 47.024 92.874
770 3 46.1608 45.4462 92.1195
771 3 48.9601 49.2162 94.5376
772 2 52.6203 47.7359 90.8217
773 4 52.3639 45.3803 94.9576
774 1 53.6849 48.1246 95.0784
775 1 51.1632 47.8058 93.2476
776 1 53.9974 46.2657 92.7529
777 3 50.2881 45.3013 93.4325
778 1 51.714 45.1243 91.1139
779 3 53.4267 49.1729 92.7045
780 1 55.1824 48.5753 90.7226
781 3 55.8307 48.3389 93.3358
782 1 56.9511 46.3804 91.868
783 2 56.0687 46.1607 94.5417
784 4 25.4848 49.8553 91.8935
785 1 26.5979 49.9209 94.5205
786 2 27.3352 51.9645 92.832
787 1 29.5393 50.7818 94.2367
788 4 29.8262 53.6854 94.2133
789 5 29.534 51.6966 91.4582
790 4 31.4552 49.5237 92.4541
791 4 33.8203 50.9048 93.5332
792 1 35.1043 52.5907 91.5744
793 1 31.9617 53.0563 91.9233
794 4 32.3102 52.6847 94.9127
795 1 35.6787 52.8935 94.993
796 3 39.366 49.5504 91.7797
797 1 39.9723 50.2498 94.294
798 1 37.0422 50.7584 92.9496
799 2 39.2937 52.1501 92.2052
800 2 37.2935 53.6029 92.7354
801 1 38.6196 52.9086 94.9963
802 1 41.016 53.5766 90.6267
803 2 41.1277 52.6355 93.7638
804 1 41.8841 50.9932 91.8046
805 1 42.8828 50.9683 94.811
806 3 44.4491 51.815 92.7241
807 1 44.7496 53.2477 95.2454
808 1 46.3422 50.5271 94.0546
809 4 48.4675 52.2874 94.0734
810 1 46.3815 53.7688 92.6905
811 1 46.5645 51.4329 90.8716
812 1 48.8866 49.8932 92.0878
813 2 49.2179 52.5591 91.7325
814 1 51.4442 50.1334 90.8532
815 1 51.4139 50.8053 93.7008
816 1 50.7405 53.7917 94.7754
817 2 51.7025 52.8935 91.9646
818 1 53.4364 52.8472 94.2627
819 1 54.0175 51.402 91.5143
820 5 55.1005 50.5974 94.326
821 4 29.2656 54.5137 91.6199
822 3 35.8962 55.4053 91.599
823 1 34.0754 54.6446 93.3103
824 5 31.9458 55.6244 94.9611
825 1 31.8261 56.1063 92.0857
826 1 34.4771 57.4549 93.7739
827 2 34.0923 57.1548 91.0206
828 1 40.1184 55.0538 93.381
829 1 38.4016 55.102 90.822
830 1 36.9734 55.7485 94.3161
831 1 37.2079 57.7069 92.0771
832 1 39.4017 57.7815 94.4186
833 3 39.8966 57.1027 91.7309
834 2 36.8238 58.7402 94.7452
835 1 43.0987 54.1186 92.8111
836 3 42.1851 55.9196 91.0875
837 1 42.2052 57.3549 93.3637
838 3 44.1739 57.4919 91.415
839 1 45.2468 56.3547 93.6736
840 2 43.1261 55.4489 95.0818
841 4 47.6678 54.8247 95.1383
842 4 49.1597 55.1525 92.5681
843 1 46.9152 56.6786 91.2045
844 3 30.8567 25.9906 97.2498
845 1 34.7923 22.0395 95.474
846 3 32.646 23.7664 96.2253
847 1 34.4602 22.4714 98.4921
848 2 34.9613 24.4712 96.8388
849 1 32.7703 24.8593 98.769
850 3 36.1141 26.0831 95.4575
851 2 39.0814 21.68 95.5254
852 1 37.2732 23.6892 95.5996
853 1 40.2597 24.4562 95.6608
854 2 36.8564 21.6316 97.3912
855 1 39.1789 22.9569 98.128
856 3 36.652 24.1483 98.5219
857 2 40.7038 25.3469 98.0889
858 1 38.0713 26.0018 97.3437
859 5 45.1167 22.0087 96.9777
860 2 43.1118 24.6324 96.0507
861 1 42.0338 22.4164 97.0563
862 2 44.1151 24.0954 98.2196
863 1 41.7655 23.7728 99.8722
864 4 43.5942 21.5228 99.4995
865 2 48.2442 23.9969 95.4563
866 3 46.4582 24.2032 97.2614
867 1 48.8932 24.1233 98.2962
868 5 50.2186 25.6806 96.0785
869 1 46.3913 25.9042 99.423
870 1 46.356 22.9821 99.669
871 5 52.2628 25.5188 98.0827
872 2 26.3378 28.7531 97.1845
873 3 24.1022 30.6023 97.2371
874 1 30.8065 28.0459 95.4995
875 1 28.7129 29.9217 96.176
876 1 28.3535 26.9142 96.4687
877 1 27.8515 28.3407 99.5467
878 3 29.9736 28.3337 98.1026
879 2 31.3878 30.1418 96.9032
880 2 33.4388 29.1376 95.4234
881 1 33.3829 26.4936 95.9603
882 1 32.5407 28.066 98.2056
883 1 35.2201 26.6485 98.4556
884 2 34.5144 29.8606 97.7628
885 1 36.1381 28.5037 96.1739
886 2 38.3909 29.575 97.1015
887 3 37.4363 28.0662 98.8021
888 1 40.2737 27.9579 98.4843
889 5 36.6881 30.4915 99.088
890 1 40.7945 29.7289 96.0284
891 1 41.8709 26.9984 95.8246
892 2 43.6566 28.8868 96.5729
893 1 43.0146 26.5297 98.8173
894 1 45.0698 28.6905 99.1954
895 1 45.1107 26.4715 96.7881
896 1 42.3388 30.2198 98.5347
897 1 46.2784 29.0293 95.7862
898 1 49.1693 28.4745 96.1625
899 2 47.7878 26.3012 97.0298
900 1 49.8788 29.7819 99.065
901 2 47.4893 28.4319 98.2826
902 1 49.8288 26.8682 98.8944
903 3 47.9738 30.6718 97.2607
904 1 54.6131 27.3334 97.0272
905 5 53.969 26.7935 99.9118
906 1 51.9182 28.2558 97.0423
907 1 54.7735 29.532 99.2298
908 1 54.0281 30.2944 96.343
909 3 52.4107 30.7535 98.4141
910 3 52.1653 28.5894 99.7332
911 4 56.6107 29.1291 95.6983
912 1 26.1298 31.0981 95.6614
913 2 23.6789 31.9971 99.3467
914 1 24.5548 33.3225 97.0715
915 1 26.3154 30.989 98.9055
916 2 26.3201 35.2074 96.255
917 1 23.5199 34.7143 99.9442
918 2 26.0567 33.7757 99.2219
919 1 29.3935 30.9349 98.8013
920 1 27.8513 33.1096 97.1918
921 1 28.3619 35.3876 99.2439
922 3 30.4775 33.4318 99.0924
923 2 30.5722 32.405 96.7409
924 2 29.9617 34.822 97.1524
925 1 33.4056 31.794 96.2539
926 3 35.0696 33.8078 95.9028
927 1 32.4855 31.31 99.0479
928 1 32.6534 34.4412 97.588
929 1 35.0596 33.0562 98.7308
930 1 39.346 32.5724 96.2984
931 1 36.417 31.5355 96.4574
932 3 37.6297 33.013 98.2976
933 1 39.7871 34.2212 99.3066
934 1 39.5797 31.1678 99.0257
935 2 36.8086 35.0281 99.7673
936 1 37.9298 35.4751 97.2752
937 4 42.6518 31.8226 95.8961
938 1 45.1583 31.1678 97.4628
939 4 41.5087 34.1156 96.94
940 3 43.2328 32.7082 98.3511
941 5 44.4689 34.0762 96.4129
942 1 42.9232 35.2345 99.0392
943 2 45.3877 33.4009 99.3566
944 3 49.7085 33.5603 96.0547
945 1 47.1206 30.9934 99.7704
946 1 47.2081 33.2663 97.1363
947 1 48.1064 34.0662 99.7618
948 2 49.5913 32.3741 98.3552
949 1 50.7029 31.0129 96.4273
950 1 52.5252 33.1628 96.6438
951 1 54.5996 32.5899 98.6501
952 3 51.8627 32.9668 99.3391
953 3 54.3991 35.2585 96.2222
954 5 50.4887 34.8411 98.1761
955 4 57.5427 32.1124 99.0304
956 3 56.2762 31.5686 96.7204
957 1 56.6769 34.2245 97.1208
958 2 58.5455 35.2533 98.8976
959 1 22.8488 35.8167 97.1517
960 1 24.7978 37.713 95.8909
961 2 21.9985 38.4438 96.3453
962 1 23.489 38.506 98.6531
963 1 25.524 36.3451 98.5751
964 2 26.2612 38.9274 98.0001
965 1 27.9773 37.1763 96.8771
966 3 29.2921 38.0386 99.1501
967 2 30.311 39.7945 95.6209
968 1 30.9891 37.0923 96.351
969 1 31.281 36.3625 99.3967
970 4 28.6217 39.8502 97.4058
971 1 34.1855 35.8469 100.003
972 3 33.3899 37.3349 97.6546
973 1 31.4675 39.3952 98.3047
974 1 34.4083 39.9278 97.7584
975 2 35.2285 35.5789 97.5085
976 2 35.703 37.8179 96.2651
977 1 36.0721 37.72 98.945
978 1 38.4963 38.5293 97.2024
979 2 40.4865 38.3152 95.344
980 2 40.526 36.5251 97.7603
981 2 37.2867 39.9646 99.2121
982 1 38.8227 37.0348 99.8966
983 1 42.8817 36.7192 96.2517
984 3 43.656 37.8225 98.6321
985 1 41.4972 39.1324 97.7369
986 4 45.2259 38.5364 96.7276
987 3 41.5493 37.5011 99.826
988 4 49.7348 37.8561 95.3189
989 4 46.455 36.694 95.3956
990 4 48.5275 35.8506 96.721
991 1 45.809 35.944 98.2086
992 1 45.9141 38.5515 99.7978
993 4 47.8618 38.4143 97.4059
994 4 50.2044 39.421 98.672
995 1 48.7482 36.8982 99.7499
996 1 51.6687 35.5623 95.3129
997 1 53.2447 35.4844 98.6458
998 4 51.9214 39.6711 96.4583
999 1 54.1994 37.8809 96.2615
1000 4 51.3066 37.3446 97.6081
1001 1 53.5503 38.7516 99.1054
1002 4 59.0409 35.6001 96.1392
1003 4 59.6248 38.7319 95.3602
1004 1 58.6986 37.9119 98.0067
1005 1 55.9513 36.7233 98.5534
1006 3 56.8447 37.0627 96.0672
1007 2 56.4859 39.3383 98.3803
1008 1 56.9537 39.7516 95.7046
1009 1 22.6889 42.8641 96.4335