ITEM: TIMESTEP
431
ITEM: NUMBER OF ATOMS
1985
ITEM: BOX BOUNDS ss ss ss
7.0195722853999996e+01 1.1237641714600001e+02
1.8754678130000002e+01 5.7982021869999997e+01
7.4061103117891108e+01 1.1798048037781088e+02
ITEM: ATOMS id type x y z fx fy fz
107 1 75.4445 26.8078 83.4385 -0.527871 -0.345886 1.29319
352 1 75.673 25.5586 87.9928 -0.430558 0.717348 1.61276
346 1 77.1322 24.9875 85.8525 1.76992 0.203464 -1.52229
348 3 75.9967 27.4364 86.2462 0.887753 0.10104 -1.12182
347 1 73.906 28.2806 87.3463 -0.29695 0.356652 0.560277
349 3 75.9891 28.1504 89.1556 -0.000204935 5.25231e-05 0.000144634
666 1 75.2823 27.1114 93.8061 0.663278 0.403275 0.294581
667 1 75.3679 26.1726 90.7883 0.569798 -0.153081 1.19327
673 5 76.3312 24.3387 93.5986 0.218468 0.694747 0.668662
1021 3 77.2196 27.4628 100.23 0.117193 0.283661 0.261557
1020 1 76.1181 28.0565 96.9847 0.682924 0.350644 -0.244644
7 3 76.768 31.3167 79.4471 -0.415936 0.368939 0.729997
23 4 74.4292 36.0718 77.528 0.473701 0.0846042 0.545914
26 2 76.5994 37.6213 77.086 -0.235737 -1.05807 0.100477
132 1 75.2224 29.3477 81.7051 0.5718 -0.012236 0.0755214
133 1 74.8693 32.2291 81.1348 0.38489 -0.430573 0.376011
136 1 72.9139 32.2351 83.5123 0.72533 -0.36022 0.372514
131 5 71.6118 30.2144 84.9188 -0.145992 0.138525 1.08049
134 1 74.2043 29.3183 84.4117 0.374074 0.0632868 0.932232
135 2 75.7668 31.643 83.9185 0.000181392 0.000120623 -0.000110092
172 1 71.8268 37.0667 82.324 -0.145587 -0.0632182 1.35194
174 1 73.606 34.632 82.1325 -0.6302 0.917685 1.00433
175 2 75.0017 34.8164 80.1421 1.24042 0.390262 -1.79951
176 1 73.5362 37.1427 80.2445 0.779705 -0.386528 -0.256231
183 1 76.8825 36.9 79.7135 0.000121126 0.000885912 0.0012405
178 1 76.511 36.1672 82.4793 0.000185661 -0.000208828 -0.000882747
179 3 72.6618 35.1056 84.5763 -0.181827 0.351546 -0.0457658
173 5 70.4896 38.0601 84.4995 0.224229 0.170658 0.783007
177 2 74.3348 36.7393 83.8096 -0.000228223 0.000432584 0.000902204
440 1 75.2497 34.1941 84.7693 -0.000519071 -0.00041761 0.000574812
393 2 76.2763 29.7757 87.2538 -0.000244761 -0.000223632 -1.22763e-05
397 1 76.306 32.8176 88.9879 -0.000355636 0.000224795 2.89424e-05
389 1 71.6424 33.1918 86.0203 0.694212 -0.499444 0.919212
390 1 72.1003 30.466 88.0544 0.260876 0.369982 -0.136013
391 1 73.2392 32.9539 89.2451 0.000425473 0.000317571 0.000164079
394 1 74.4119 31.6543 86.4565 0.000189515 -1.57003e-06 0.000246241
398 2 74.8087 30.5338 89.168 0.0001325 0.000319277 -9.91622e-05
446 2 75.2299 38.2004 89.3154 0.000437043 -0.000507203 0.000379489
445 2 76.2322 35.8241 89.2737 0.000109643 5.49966e-05 0.000253977
442 1 75.2335 36.739 86.4892 0.000207258 0.000701519 0.000547567
438 1 73.4721 35.9948 89.7128 3.88249e-05 -0.00019776 -3.31431e-05
439 2 74.4238 34.3612 87.372 -0.000658098 -0.000411004 0.000620727
435 1 70.6984 34.4937 88.4949 0.719342 0.0848487 1.16197
436 1 72.2553 36.3087 86.9305 0.816681 0.177597 -1.5569
437 3 71.0601 37.4333 88.8576 -0.404579 -0.222667 1.359
710 4 72.8859 29.2354 93.2827 0.896993 0.35766 0.112833
711 1 73.5441 28.6253 90.5719 -0.207893 0.109051 -0.684854
712 4 71.8889 31.3171 91.0546 0.107438 -0.254145 0.192895
713 1 73.8727 32.3409 94.2334 0.599378 0.130338 -0.239772
714 2 74.5754 31.4035 91.6082 -8.50845e-06 9.7805e-05 0.00028426
715 1 76.1263 30.168 94.6678 -1.96594e-05 -0.000265599 8.39764e-05
716 1 76.1088 29.1046 91.8243 0.000173505 -0.000106365 -0.000281932
721 4 76.7225 33.1405 95.1296 9.71692e-06 -0.000366325 0.000649262
775 1 76.092 36.977 92.158 6.59145e-05 -0.00015287 9.84717e-05
766 2 72.5652 33.8862 91.7849 -0.270743 0.143503 -0.00768236
767 1 72.2118 34.8053 94.3522 0.585016 0.337077 0.404056
768 3 73.5084 36.319 92.6026 0.000125613 4.14833e-05 -0.000260135
769 1 70.9555 36.2359 91.3845 1.07158 -0.169963 0.200202
770 2 75.0434 34.9476 94.2396 -7.72985e-05 -0.000296537 0.000287285
771 1 71.9966 37.8023 94.5116 0.748692 -0.327549 -0.451986
772 1 75.2361 34.1392 91.5957 -6.53104e-05 -8.0833e-05 0.000291903
1065 4 73.8593 30.281 96.4717 0.617378 0.266326 -0.0198776
1068 1 76.7714 33.1304 100.112 0.355925 0.390733 -0.770843
1066 3 76.2103 32.132 97.5755 0.000104726 -0.000366209 0.000497404
1067 1 76.5393 30.101 99.4214 0.124935 -0.239514 0.198024
1114 1 74.1139 33.6697 97.2635 -0.0916928 0.931957 -0.862915
1115 3 72.2158 35.8968 96.9616 0.2843 -0.154646 -0.0961137
1117 1 74.6156 35.6392 99.771 1.16718 0.238075 -0.869027
1174 2 76.0741 37.9385 97.9 1.11344e-06 0.000420238 -0.000100539
1120 2 73.2851 38.1565 98.3304 0.417157 -0.801684 0.407387
1116 4 76.6474 35.0641 97.4244 0.00044224 0.000239218 -0.000104491
1118 1 74.4303 36.8312 96.0237 0.000471893 -2.5711e-05 0.000191093
1407 4 77.1317 29.7236 102.632 0.867307 0.0596391 -0.847729
1457 2 76.2049 33.8818 102.584 0.524235 0.530964 -0.146593
1459 3 76.4198 36.531 102.359 -0.0557765 0.177555 0.28569
50 4 73.7128 41.527 77.299 0.259862 0.0701826 0.653607
52 1 76.3966 40.5321 76.8203 0.615632 0.617613 -1.16113
48 4 71.9606 39.5491 78.971 0.471281 -0.00843412 0.389053
49 1 74.809 38.8895 78.5406 0.136676 0.924642 0.340377
222 3 76.3041 41.2131 79.2361 -0.00151526 0.000126929 -4.2543e-05
81 3 75.8016 43.3492 76.705 0.0356134 -0.024878 0.38624
80 1 75.1877 43.697 79.2681 0.356434 -0.403164 -0.267041
225 1 76.7848 39.3572 81.2463 0.000360635 -0.000863552 -0.000694914
223 2 76.9957 42.1479 81.3191 0.00049493 0.000996892 0.000449141
216 1 72.8803 42.625 82.8851 0.532669 0.387695 -0.439833
217 5 71.6886 39.9821 81.8616 0.286693 -0.316925 0.218745
218 2 74.3082 38.8153 82.2194 0.000303212 -0.000668127 0.000635799
219 1 74.0819 41.0976 80.5871 0.000998162 -0.000269011 -0.000175418
220 4 75.6103 41.2807 83.3413 0.000407441 0.00055652 0.000527656
215 1 71.1409 41.0096 84.522 0.395998 -0.0762398 1.01802
221 1 73.2125 38.8914 84.737 0.000107701 -2.04941e-05 4.565e-05
492 5 76.4336 38.7234 84.307 -0.000106438 0.00032694 0.000475632
262 1 73.2261 45.644 83.4366 0.234098 0.18124 0.470966
257 1 75.6238 46.6588 79.8138 0.298324 0.882856 0.929884
258 4 72.326 43.353 79.724 0.455557 -0.314974 0.408311
259 2 73.2514 45.8356 80.4431 -0.315126 -0.477533 0.698863
260 1 75.4555 44.3716 82.074 0.000113639 -0.000417471 0.000283104
261 1 74.6919 47.9439 82.3484 -0.256288 -0.371331 0.897404
535 1 75.7282 44.0287 85.0179 0.000593687 0.00049477 -1.38108e-05
488 1 72.3149 39.371 87.6951 0.301514 0.321879 0.0851922
489 1 72.1123 42.4357 87.5376 0.379488 -0.761522 0.0988045
490 2 74.3239 40.869 89.2134 -1.15604e-05 0.000648469 0.000487979
493 5 73.9807 41.6534 85.5108 0.000541185 -0.0008045 0.000322759
494 1 75.1956 39.6219 86.9881 -0.000922966 0.000159103 -0.000773829
491 1 71.81 41.2728 90.2841 -0.119733 0.306501 0.248682
537 1 75.2286 43.1968 87.9598 0.000419486 0.000109939 -0.000116756
495 5 77.1477 41.4967 86.0983 -2.75333e-05 -5.94037e-05 -0.000262978
496 1 77.1802 40.6635 89.0421 0.00028369 0.000406601 0.00014331
873 2 73.5817 43.5277 90.1882 -0.000287021 -0.000192009 -0.000144157
883 3 76.9962 47.7642 90.2277 -0.000403583 -3.69219e-06 -7.15021e-05
540 1 76.9006 45.9131 87.9291 0.000426591 8.76271e-05 -0.00115323
532 2 72.714 43.9338 85.4563 0.256011 0.550173 0.016459
533 5 72.8027 45.2488 88.1508 -0.461188 0.051675 0.909059
534 5 70.8469 44.0385 89.4192 -0.0592427 -0.219648 1.35535
541 3 74.5278 45.7843 86.7108 1.02619 0.388414 -1.45325
538 1 73.6583 48.1148 85.2918 -0.36749 -1.13082 0.918805
539 1 74.2762 47.8294 88.5742 0.658091 -0.0464739 0.346459
879 1 75.6299 45.495 90.4578 -0.000896778 -0.000233215 -0.000424438
542 1 76.386 47.0172 85.0902 -0.000204908 0.000474283 -5.70766e-05
825 2 76.213 39.6032 91.3383 0.000178635 0.000277614 0.000129684
818 4 70.2003 39.0295 90.9888 0.309435 -0.139666 0.143417
819 1 73.1867 38.6386 91.2216 0.000347813 -0.000105666 5.73148e-06
820 1 72.1738 40.6481 93.5627 -0.338046 -0.311404 0.18567
821 1 74.36 41.4797 91.8394 -0.0001635 -0.000227346 -0.000541498
822 2 74.3353 41.9572 94.5431 -0.000228162 0.0010445 -0.000170111
823 4 74.9224 39.0927 93.98 -0.000228923 -2.87476e-06 0.00027219
826 3 76.222 42.8431 90.6934 -0.000259347 -0.000122565 -0.000392111
827 1 76.8361 41.8108 93.4681 -0.00022729 -0.000179745 -5.02114e-05
878 1 73.8257 45.4726 95.6771 0.921856 -0.674131 0.591596
874 1 75.1755 44.3455 93.1752 -0.000438997 0.000246249 -0.00115272
875 1 72.2235 43.608 92.7443 0.588239 -0.2364 -0.0179096
876 1 72.9371 46.0692 91.1842 0.203872 0.0212794 0.0057437
877 3 74.7028 46.9647 93.7764 0.131868 0.480958 -0.539285
1171 1 74.1851 40.0678 96.8458 0.707224 0.655931 -0.60191
1172 1 74.5236 41.7206 99.5566 0.69544 -0.206598 -0.00598142
1175 1 72.7552 42.8891 96.5073 0.422327 -0.432157 -0.0328587
1170 1 75.9567 38.7777 100.495 -0.00502828 -0.241399 -0.193968
1173 3 76.7072 40.5411 98.4786 -8.20492e-05 0.000118277 -0.000181902
1225 1 75.7287 42.9676 96.5833 -0.000594087 -1.68318e-05 0.00034893
1227 1 75.8169 47.4049 98.39 0.550572 0.676688 -0.134641
1224 1 74.7603 44.8587 99.3175 0.0356579 -0.306626 -0.347486
1234 1 77.1216 43.3221 99.1645 -0.000374709 0.000883719 -0.000128621
1229 1 77.0372 45.7984 96.3401 0.00037952 0.000299993 0.000808839
1508 3 75.391 40.5967 102.349 0.577347 0.353327 0.232892
1510 5 77.0125 41.7949 104.944 0.184241 0.282757 -0.548016
1558 1 75.7884 43.3887 102.294 1.5823 -0.506432 -0.808513
1560 2 77.0632 44.5566 105.068 0.826957 -0.322025 -0.677794
296 4 76.6843 51.6698 83.3242 -0.416855 -0.0774104 0.454108
299 1 76.8956 49.4007 81.4013 -0.694026 0.543594 1.52168
295 3 75.4739 49.6836 84.6777 1.29008 0.345852 -0.279719
582 1 76.9268 48.863 87.551 1.1619e-05 0.000215841 -0.000430289
583 2 74.6051 50.6013 86.9174 0.480661 -0.608772 0.391748
584 4 76.2669 52.862 88.7022 0.476609 -0.253539 0.37863
586 1 75.9821 50.3179 90.1517 0.679249 -0.313275 -0.186255
927 2 75.8855 48.7291 95.7737 0.00759432 -0.53378 0.0661568
929 1 76.706 50.315 93.5621 -0.091332 -1.14372 0.347201
926 3 74.805 48.3287 91.5026 0.368635 -0.715054 0.108762
2 1 83.2329 27.4168 78.8919 0.349071 0.66887 0.645696
1 1 80.3283 27.9578 79.4746 0.846804 -0.655503 -0.00731593
114 3 81.8433 27.9657 81.7981 4.57445e-05 3.90223e-05 -0.000452455
108 3 77.564 25.184 83.0543 0.179713 0.0509535 0.672167
110 1 79.7382 26.4182 82.2135 0.422967 -0.106925 -0.130699
113 1 82.1029 25.5922 80.6668 0.483497 -0.692889 0.972651
116 1 82.7603 25.1262 83.8132 0.167771 0.572001 0.0271028
109 3 77.5403 27.7613 82.7165 0.71618 0.48646 -0.316835
111 1 80.3042 23.9642 84.5295 -0.542322 0.307443 0.505081
329 1 81.9576 22.0105 87.7989 -0.371959 -0.324431 1.88341
331 1 83.5537 22.7206 85.836 1.15654 0.98431 -0.93545
330 5 84.1938 20.2186 89.8292 0.7342 -0.020909 -0.317356
328 1 80.2714 22.9583 90.3133 0.665095 -0.295787 -0.371865
361 1 83.7515 27.1059 88.8374 -4.78749e-05 0.00013499 -0.000170797
357 1 81.4039 27.9123 87.3063 -0.000474854 0.00046506 -0.000657964
356 1 82.8669 24.3042 89.5053 -0.000276245 -8.71808e-05 -0.000210598
350 2 78.4974 25.1478 89.0077 -2.12785 0.918683 0.911234
353 1 79.4627 26.808 85.141 -0.000109606 -0.000154556 0.000187308
354 1 80.2152 24.4049 87.562 1.09672 -0.170471 -1.91335
355 2 82.5376 25.265 86.6365 -0.000303571 0.000654573 -0.000143543
351 1 78.3076 27.6717 87.7952 0.000210388 0.000132388 -0.000237821
359 2 80.8173 26.199 89.6018 3.43812e-05 -0.000341087 -0.000486294
362 4 84.194 27.153 85.6567 0.000245759 0.000358902 -0.000599832
639 2 79.4775 21.9599 92.8103 0.431705 0.666312 0.0555286
640 1 82.3535 21.8927 93.6377 0.0164949 0.843935 0.452384
641 2 82.8669 21.9024 90.9837 -0.778189 0.567659 -0.0310458
676 4 84.1396 27.9498 94.3361 -0.000215499 -0.00041174 0.000130956
677 1 83.0301 26.8045 91.9036 -0.000154603 3.55333e-05 -2.50526e-05
668 1 77.8824 24.2003 91.4054 -0.304805 0.206966 0.0834697
669 2 78.0868 26.512 93.5629 0.000188356 -5.24039e-05 -0.000148287
670 1 78.3214 27.2193 90.8701 -0.000211863 0.000190512 0.000322156
671 1 79.4552 23.842 94.8778 0.8505 0.00920789 -0.497894
672 1 81.125 27.0086 94.4888 0.000548467 -0.000396432 0.000356472
679 2 82.3138 24.5277 94.4707 0.000126692 -0.000356498 -0.000336298
674 1 80.5536 25.0986 92.2774 -2.16367e-05 0.000190752 0.000124864
675 3 83.1671 24.0842 92.1782 -0.000387925 0.000109142 -0.000253668
991 2 82.4356 21.4297 101.035 0.442776 0.197266 0.664739
992 2 80.2686 23.4508 98.3785 0.0827641 -0.059608 0.0329494
993 1 81.6585 21.8982 96.5401 0.227994 0.175224 0.0470454
997 1 83.1883 20.0589 98.8591 0.897065 1.37965 -0.232194
1000 1 83.0255 23.2194 99.1794 -0.000127795 1.00577e-05 0.000153635
994 1 84.085 20.0383 96.1626 0.79914 1.42132 0.256971
1029 1 84.0596 23.6335 96.4316 -0.000135608 -0.00032798 -9.92409e-05
1026 1 78.9232 28.3292 98.5434 -0.000363014 0.000397924 -0.000308458
1022 4 78.7536 25.115 99.588 0.173455 0.872702 -0.018647
1023 1 78.3581 25.8596 96.524 0.246325 0.534213 0.407717
1024 2 81.4544 24.8356 96.7635 -0.000251096 0.000330922 1.952e-05
1025 1 81.6242 25.9353 99.6781 -0.000193292 -3.43015e-05 0.000309653
1027 3 80.8105 27.1483 97.1828 -0.00022398 -0.000256845 0.000180962
1031 1 83.6485 26.5802 97.1226 -0.000442121 -0.000134876 -0.000126522
1030 2 84.0708 27.3008 99.8736 -0.000318499 -1.43938e-05 -0.000154905
1374 3 84.2149 24.5402 101.371 9.21017e-05 6.13351e-05 -1.41253e-05
1368 2 83.481 24.3411 105.074 0.0651533 -0.0400918 0.327262
1369 1 81.9816 26.4738 105.511 0.0370725 1.43579 -0.557701
1370 1 79.9915 26.717 102.294 0.36822 -0.164532 -0.0536596
1371 2 83.1535 25.929 103.197 -3.94218e-06 -0.000361838 0.000261147
1367 1 81.722 24.035 101.989 0.038891 0.0963598 -0.0030354
1074 1 82.4773 28.2499 102.155 -0.000179705 0.000243634 1.06125e-05
1412 2 83.7742 28.3505 104.879 -8.97734e-05 0.000149153 0.000233144
9 3 78.5895 33.0285 76.5995 0.708802 -0.532894 -0.00408645
11 1 83.4682 30.2683 78.0356 -0.0435465 0.738152 0.813551
12 1 81.1159 32.1646 76.7331 0.6234 -0.0108722 0.930907
8 2 78.3268 30.2157 78.0638 0.995652 -0.419637 -0.716588
10 3 80.9633 30.3521 78.697 0.0361948 0.17099 0.109036
140 1 79.3087 32.318 79.3711 8.3264e-05 -0.00075547 3.04554e-05
24 5 78.4738 35.6346 75.6812 0.889661 0.457954 -0.783623
25 1 77.4125 34.7897 77.9471 -0.873626 -0.337768 1.6037
33 4 82.9813 36.7337 74.3118 0.604523 0.281805 0.303622
30 3 80.1935 36.9895 77.0347 0.000262646 -0.000259772 0.000544421
31 1 81.7863 34.8223 75.7441 -0.299323 0.331215 1.15213
28 2 82.9831 33.9837 78.1937 -4.80983e-05 0.000575419 -0.000115566
29 1 80.3849 34.8306 78.58 2.6081e-05 0.00152794 -0.000345563
32 1 82.6642 36.8704 78.1926 -0.000521931 -0.00011429 -0.000404953
148 1 82.9395 31.7786 83.4346 0.000366175 0.000137117 -0.000195266
145 2 82.5382 32.5485 80.1514 0.000266453 8.67587e-05 -0.000148291
137 1 77.8071 28.7317 80.3058 -0.377754 0.388514 0.411049
138 1 80.5392 30.3262 81.3604 0.000329392 0.000300632 -0.000167133
139 1 77.7475 31.0937 82.1462 -2.16053e-05 -0.0004333 0.000139623
141 3 79.5613 28.9192 83.3478 -0.00025334 0.00022227 -0.000463121
142 1 80.5538 33.3364 81.9763 -9.41344e-05 0.000539256 0.000345045
144 1 83.4245 29.9362 80.9878 0.000217754 0.000262538 0.000146374
402 1 79.9826 31.4373 84.2859 -4.94715e-05 0.000427207 0.000140939
358 1 82.0736 28.7723 84.3235 7.42091e-05 1.4005e-05 6.40959e-05
392 1 77.2308 29.3291 84.751 8.53129e-05 0.000301425 -0.000272889
184 1 79.2455 37.8446 82.7581 -3.50633e-06 0.000965822 4.75502e-05
180 1 78.0677 33.7914 83.8784 -0.0001271 -0.000287027 0.000208431
443 2 77.7334 36.4131 84.8862 6.61641e-05 9.70924e-06 0.000320073
193 1 82.2793 37.3839 83.6318 -0.000212494 -0.000599859 -0.000124562
186 3 82.3071 34.4742 84.04 -0.000323245 6.2692e-05 3.66316e-05
182 3 79.1244 35.5852 81.1415 -0.000123439 -0.000161258 -2.90575e-06
181 5 77.3317 33.7707 80.8962 -0.000307285 4.30637e-05 -5.89128e-05
188 3 83.9437 34.1624 82.2492 -0.000509562 -0.000171658 0.000406493
190 1 82.0094 35.7287 81.1031 0.000368756 -0.000378625 -0.000621788
185 3 80.1298 35.4869 83.5726 -0.000664079 -0.00125945 0.000710106
27 1 79.8567 37.7806 79.7506 0.000188205 0.000436657 0.000132632
395 1 77.8497 31.8494 86.466 0.000547864 -0.000358988 0.000154215
399 2 80.2524 30.3128 88.3835 -0.00019519 0.000491318 -0.000870115
400 3 79.5774 29.5081 86.0736 0.000350065 -0.000467419 -0.000356866
401 1 83.3512 30.0657 89.0031 -1.89422e-05 0.000231745 -0.00032252
403 1 82.3954 32.9695 89.0974 0.000124849 0.000153166 0.000195288
396 1 77.81 30.2346 89.567 -0.000206357 0.000165705 0.000283607
452 2 79.5119 32.8655 88.4811 -8.19389e-05 0.000648668 0.000782693
143 1 81.9966 31.1835 86.506 0.000139823 -9.85933e-05 1.65724e-05
441 1 77.7806 34.9188 87.1722 -6.80259e-05 0.000174187 -0.000146001
187 1 80.2467 37.0519 85.816 0.000335344 -0.000437234 0.000522616
449 2 83.4051 35.5412 88.6491 0.000959029 0.00011855 3.88385e-05
448 1 80.6004 33.9749 86.0646 -0.000387848 -0.000199836 0.000669772
454 1 83.8093 33.7303 86.3969 0.000114552 0.000160612 0.000179049
447 3 82.7722 36.2445 86.2577 0.000111304 0.000410884 0.000268343
450 1 80.5259 35.6808 88.6816 0.00062938 0.000679651 0.000100084
444 1 77.8517 38.1976 87.2173 0.000403009 -0.000225653 0.00016077
451 4 83.7213 38.303 88.3123 0.000440002 0.000816595 0.000438003
776 1 78.2815 37.692 90.1556 6.40069e-05 -0.000197819 -0.000111191
727 4 83.9079 30.7675 94.7377 0.000505103 -0.000270733 -0.000237602
717 2 78.7019 29.4803 92.6138 -0.000168109 0.000407858 6.33829e-06
719 1 77.279 31.9633 92.292 6.23415e-05 5.39253e-05 0.000251129
720 2 81.2919 32.2977 95.6865 0.00064211 -0.000349417 -0.000116387
722 1 78.7677 28.6015 95.3363 0.00022726 0.000310848 0.000213024
723 3 78.719 31.2754 94.863 0.000454296 -8.81274e-05 7.21298e-05
726 5 83.4713 29.8417 92.0103 4.6614e-06 -0.00031447 -0.000280116
728 1 81.0537 30.2172 93.7461 0.000502711 4.53135e-05 -0.000204417
730 1 80.2366 31.6328 90.8875 0.000226471 2.26553e-06 5.19285e-05
731 2 82.5131 32.3512 92.3074 0.000223825 2.70855e-05 -0.00033818
773 1 79.8738 33.19 93.3855 0.000389351 -9.21942e-05 -5.9977e-05
724 1 80.9698 28.7206 90.6871 -0.000214523 8.19973e-05 -0.000564943
778 2 81.1309 34.4402 91.2122 0.000107673 0.000147821 0.00027513
783 2 82.2799 37.0485 94.1609 0.000423367 0.000109773 -0.00058679
831 1 79.8887 36.5608 92.5999 -0.000322052 -1.91207e-05 0.000264381
777 2 77.6218 34.9351 93.3119 -0.000274601 -0.000174081 0.000198524
779 1 82.6362 34.3675 94.2233 0.000210342 -0.000196239 -0.000243446
1123 1 77.3592 37.027 95.2084 0.000437097 0.000397467 -3.3056e-05
781 1 84.1937 38.299 92.4782 0.000564663 0.000632634 -0.000223465
1126 1 79.9511 35.343 95.3666 0.000498413 0.000166767 -0.000413969
453 1 83.8555 34.7797 91.3333 8.78473e-05 7.18551e-05 -0.000150374
829 2 79.9164 38.1877 95.0391 0.000104099 0.000589177 -4.87306e-05
780 4 82.088 37.3016 90.7636 0.000448928 0.000658719 0.000454135
774 1 78.3685 34.4764 90.6315 0.000162331 0.000141205 0.000590259
1069 3 77.6907 30.3638 97.0349 -0.00068681 0.000242318 -0.000296748
1070 3 80.115 30.4132 97.0887 -0.000201329 9.54719e-05 0.000229449
1071 1 79.2677 31.3062 99.6387 -4.81243e-05 0.00025221 -4.09438e-06
1078 2 84.1922 30.4441 100.083 -9.34706e-05 0.000124217 -0.000188304
1073 1 78.9349 32.9552 97.1265 0.000110699 7.86328e-05 0.000147172
1075 1 81.838 28.8982 99.18 -0.000436691 0.000137027 0.000441178
1076 1 82.2445 31.7537 98.3262 -0.000234261 0.000285426 0.000269938
732 4 84.1748 32.9704 96.3506 -0.000365906 -0.000162588 -0.00011686
718 5 82.2251 29.2074 96.2826 -0.000337846 0.000263484 -0.000196063
1410 3 79.6839 29.1287 101.245 -5.67368e-05 -0.000176234 -0.00021207
1072 1 81.7814 31.1031 101.403 0.000110289 -0.000566211 0.000301718
1122 2 79.2112 35.8147 97.8548 0.000367832 0.000291613 9.72653e-05
1124 1 81.9112 34.0837 100.691 0.000332795 0.000453305 -0.000318722
1130 1 83.1812 36.7343 99.5803 -0.000442974 0.000276182 -0.000140933
1127 5 81.7045 34.5564 97.6853 0.000430163 -2.39237e-05 0.000237042
1121 3 79.4369 34.0401 99.6331 0.000162934 0.000313726 -0.00032308
1125 2 80.3898 36.6132 100.028 -9.7474e-06 -0.000152992 0.000108375
1119 1 77.618 36.1741 100.071 0.000373954 -0.00018108 -0.000309089
1187 1 81.5914 37.473 97.0498 0.000444446 0.000172708 -0.000393538
1408 4 78.9252 31.1043 105.693 0.526437 0.332772 -0.338703
1409 5 79.2583 31.4495 102.85 7.31055e-05 0.000109511 0.000256829
1411 1 80.2268 28.9839 104.529 1.52331 -0.217005 -0.928779
1413 3 82.5173 30.3911 103.885 4.33911e-05 -4.15355e-05 0.000163655
1414 1 82.7111 31.5488 106.213 0.000334813 0.000233555 0.000428298
1416 1 81.7224 33.1745 103.767 0.000171379 2.16572e-05 0.000172366
1464 1 81.4996 36.3092 102.699 9.53848e-05 9.01988e-06 -0.000216063
1463 4 82.0801 35.5268 106.192 0.000351829 -0.000404228 -2.6973e-05
1462 1 79.9025 37.276 105.109 5.81464e-05 -0.000243441 0.000210372
1466 1 84.0811 35.2633 103.961 -9.56338e-05 0.000125673 -0.00012486
1456 1 78.9893 34.399 102.342 0.000232592 9.42962e-05 -4.35869e-05
1458 4 79.845 33.7715 105.902 0.103908 0.16212 -0.198239
1465 2 82.5757 38.1991 104.489 -0.000234395 -9.19333e-05 -3.94903e-05
1460 4 77.4891 35.7236 105.133 0.654546 0.164567 -0.852323
1461 3 78.8578 37.0631 102.605 -7.76033e-05 -4.55205e-05 -0.000253157
1691 4 81.2406 31.6977 108.453 0.278291 0.22324 0.136047
1694 3 82.9744 33.1203 110.777 -0.0143537 0.226975 0.00997312
1692 2 82.5243 28.9261 107.365 0.311684 0.144572 -0.627212
1731 4 80.8446 35.0474 108.776 0.9222 0.255432 -0.380314
1732 5 83.4579 33.6554 108.34 -0.00013503 0.000137751 0.000136034
1734 1 83.8915 36.7129 108.33 1.22847e-06 0.000367429 -4.09667e-05
1733 1 83.7992 35.7104 111.182 0.28866 0.451598 -0.442114
1730 2 79.5779 38.1306 107.571 0.579085 0.299059 0.210155
51 1 78.4847 38.682 75.827 0.157713 0.146313 0.379501
53 1 78.2671 42.79 76.1128 0.400747 0.6577 1.07953
57 5 80.9936 38.466 74.7904 0.84703 -0.077441 0.339089
58 2 79.8361 40.9001 75.3492 0.691675 0.26628 0.285411
60 1 82.6245 41.0872 75.544 -0.801492 0.0572202 0.508601
61 1 80.9426 39.5496 77.6516 0.000433431 0.000644179 0.000120623
62 3 81.3764 42.1693 77.816 -0.000615384 -6.55185e-05 0.00101542
59 3 83.6732 43.1236 77.068 -8.62849e-05 8.27541e-05 0.000214132
54 1 78.8804 41.6576 78.8417 0.00292273 0.00340652 -0.00094582
56 3 77.9284 39.1961 78.5973 -0.000355555 -0.00187859 0.000265625
63 2 83.4963 40.7926 78.1244 -0.000233968 -0.000787021 0.000441419
64 4 83.9821 38.7213 76.4909 0.000425758 0.000232142 0.000368074
90 1 82.6735 44.0218 79.4028 -0.000163175 -0.000249371 0.000292346
88 1 83.6231 45.8998 76.7622 0.385203 -0.258087 0.101019
83 5 79.0409 45.7224 76.2053 0.99145 0.39984 -1.55278
85 4 83.0713 43.6221 74.2226 1.13396 0.00304416 -0.21803
87 1 81.16 43.9325 75.9234 -0.235961 -0.50563 0.938205
82 1 77.5956 45.5629 78.293 0.0102132 -1.05981 0.565101
84 5 79.5214 47.9968 78.0817 -0.743203 -0.427906 0.306661
86 2 79.933 44.0481 78.6432 -0.00198626 -0.0038069 0.000410496
89 3 81.1875 45.8858 77.7686 0.00143016 0.00150792 -0.000718248
275 1 83.0266 47.0085 79.4861 -0.000466252 0.000414315 0.000304216
232 1 82.0627 41.0816 80.2913 0.000473317 0.000359394 -0.000504562
233 3 83.4227 42.3702 82.3532 -8.566e-05 -0.000110619 0.000625867
230 2 82.1481 38.5005 81.0873 0.000939466 -0.000628653 -0.00017495
224 1 79.4591 40.6521 81.6649 0.000693712 -9.89656e-05 0.000612419
229 2 81.8429 40.2874 83.1189 0.000698193 -0.000720532 -9.94772e-05
227 4 78.3189 42.6985 83.6075 0.000716452 -0.000279263 0.000591446
228 4 81.0267 42.3587 84.8993 0.00045512 -0.000606106 -0.000231876
226 5 79.1889 39.8747 84.853 -3.64415e-05 -0.000466269 0.000461491
505 1 84.2375 41.6797 84.9576 -0.000324287 0.000371902 0.000256928
55 1 78.3169 44.4066 80.854 -0.000557771 -0.000212703 0.000173715
548 1 81.4247 47.4672 84.8644 -1.73979e-05 4.6463e-05 -7.53242e-05
272 5 81.9198 46.1883 82.1508 -0.000144552 0.000309045 -0.00044118
268 4 79.5785 45.3811 83.8368 0.000264342 -7.68859e-05 -0.0001624
266 2 78.3982 47.6133 80.3665 -0.178904 -1.16858 -0.484534
265 1 80.9551 43.4142 81.8567 0.000231026 -2.10132e-05 -0.000233709
264 4 77.4609 46.6076 82.5546 -0.00012129 -1.37394e-05 0.000293322
263 2 80.3729 46.1737 80.0724 0.000281944 3.716e-05 0.000943185
269 1 83.0078 44.4625 84.201 1.09601e-05 8.61759e-05 1.3815e-05
503 4 82.0014 39.6946 85.8586 0.000410028 -0.000839096 0.000328423
502 1 80.5353 42.8389 90.4111 0.000241683 -8.202e-06 0.000739968
498 4 79.8394 41.4794 87.6736 -0.000398465 -0.000458479 -0.000107044
499 4 82.7148 42.5427 88.4515 -0.000202811 0.00141427 0.00028189
497 4 80.7826 38.7479 88.3001 0.000528269 0.000252731 0.000732249
888 2 81.9861 45.1069 89.8984 0.000136036 7.60166e-05 -0.000152217
536 2 77.9417 43.3388 88.9684 0.000579942 -0.000431643 0.000777614
552 3 84.1163 46.0129 88.9163 1.54322e-05 0.000838822 8.1344e-05
549 2 83.7316 46.7517 86.3633 -0.00061147 0.000432152 -0.00033225
550 1 81.8277 47.5162 88.4565 -0.000199553 9.7933e-05 -0.000306174
547 5 79.5054 45.5042 89.0455 -0.000355988 0.000341957 0.000224555
546 1 81.4815 44.95 86.8997 -0.000360722 -8.48611e-05 -0.000343544
545 1 78.6154 44.0038 86.3471 0.00024383 -0.000778454 8.28617e-05
544 2 79.0811 46.743 86.3692 -0.00052489 -0.000682936 -0.0013471
833 1 82.8242 42.338 94.1549 -0.000581694 0.000355477 -0.000818203
824 1 78.3978 39.2175 93.0162 0.000254664 0.000527723 -0.000135801
501 1 83.1614 41.1733 91.3227 0.000974478 -7.24734e-05 -0.00100602
828 3 78.2983 41.5234 91.2621 -5.56089e-06 0.000111382 -4.30697e-05
830 1 79.8562 42.1336 93.4625 -0.000552807 0.000454456 0.00048065
832 2 81.4059 39.5466 93.2765 0.000253894 0.00054645 0.000241633
834 1 83.3573 39.3629 95.268 0.000698052 0.000502883 -3.44043e-05
1177 1 77.2543 40.0994 95.8813 0.000435268 4.01487e-05 -9.06546e-05
500 4 80.3858 39.8679 90.8095 0.000526545 9.65101e-05 0.000735196
551 1 83.8403 44.1993 91.6213 -4.04093e-05 0.000215939 0.00023832
885 1 80.3163 46.8396 91.5745 -9.94937e-06 -0.000644658 -1.69435e-05
886 4 79.7558 45.9043 94.4314 -0.000491602 -0.000377392 0.000288199
892 1 82.8397 46.052 94.1967 -6.19735e-05 0.000392302 -0.000143258
880 1 78.2966 44.4361 91.6632 -6.55676e-05 -4.52035e-05 -0.000224285
887 3 81.25 44.3853 92.5711 0.000156387 -0.000204476 0.000645278
882 2 77.7626 44.175 94.3456 -0.00120426 0.000389486 -0.000388811
889 1 83.3305 47.3367 91.3194 -0.000377516 0.00015928 0.000163166
884 1 77.2299 47.1182 92.9893 -2.53599e-05 -0.000187739 -0.000206547
1184 2 83.2801 41.5343 97.0473 -0.0001416 0.000138401 0.00035396
1178 1 80.5999 40.6416 96.0571 0.0003432 0.000728005 -3.77807e-05
1179 1 78.804 38.4847 97.9586 0.000288682 0.000292866 7.63759e-05
1180 1 78.9591 39.0801 100.923 -0.000133846 0.000480039 -0.000131068
1181 1 79.3469 41.4071 98.784 3.4702e-05 0.00020829 -0.000248115
1182 2 81.7483 38.5631 101.185 -0.000424508 0.000220879 0.000442295
1183 1 82.0468 43.0395 99.2195 0.000309556 -0.000145994 -0.00015097
1176 3 77.281 41.3167 100.923 -0.000267499 -0.000107321 -0.000270505
1228 2 78.4648 42.6499 96.3221 -0.000449571 0.000613036 -0.00044097
1519 3 83.8031 42.4708 101.165 0.000432646 0.000245996 0.000494449
1189 1 81.9758 39.8589 98.8592 -0.00051505 -0.000240873 -4.3134e-05
1513 3 80.9552 41.1716 101.084 -0.000146359 0.000265658 -0.000173431
1186 3 84.1716 39.9965 100.457 -0.000963673 0.000422134 7.07837e-05
1231 2 78.7717 47.6139 98.1098 0.0001603 0.000204834 -0.000337147
1233 4 81.8655 46.1767 99.6361 0.000114203 -0.000176511 3.1072e-05
1232 1 81.228 47.1454 96.8272 -0.00024995 -0.000404054 4.8507e-05
1239 3 83.8324 46.6638 97.7335 -0.00016572 0.000161077 7.15059e-05
1226 3 77.6241 45.9215 99.5873 5.26008e-05 -1.62889e-05 0.000119891
1563 1 79.3143 43.4817 101.149 0.000497545 0.000292325 -5.89272e-05
1230 4 79.5652 44.8147 98.1832 0.000177755 -0.000212678 0.000183299
893 1 83.926 44.1838 96.5927 -0.000187923 4.58055e-05 -0.000211103
881 4 80.9778 43.8077 96.0258 5.21286e-05 -0.000274645 0.00014093
1507 1 77.3798 38.7904 104.159 0.810663 0.272606 -1.11352
1509 1 79.0055 41.2303 103.066 -0.000511373 0.000212656 -0.000156667
1511 1 79.7803 43.1898 106.866 0.601818 0.0100056 -0.603866
1512 2 79.3795 40.5358 105.736 0.131645 -0.682959 0.299494
1515 3 80.4918 39.0995 103.33 -0.00040949 0.000352536 2.55683e-05
1516 1 82.8964 40.4437 102.824 -0.000406837 0.000310427 0.000183416
1517 1 81.7734 41.7094 105.238 -3.0017e-06 0.000103207 -0.000400252
1566 3 81.717 43.0352 102.69 0.000222472 0.000357988 -0.000465707
1567 4 80.4872 47.7911 103.712 0.062333 0.493531 0.128581
1572 1 83.6811 45.1422 102.254 0.000231886 0.000460697 0.000269691
1520 2 83.998 43.5276 106.535 0.000180941 -1.17404e-05 -5.83296e-05
1565 3 83.6436 47.1213 104.468 0.000287925 -3.61515e-05 0.000153754
1235 4 80.7075 45.7113 102.15 0.000252402 0.000278067 -0.00016396
1568 5 82.3551 47.4965 106.839 0.623514 -0.624294 -0.698598
1559 2 79.4142 43.704 104.027 -9.96122e-05 -0.000329576 -0.000194068
1561 1 77.6384 45.7883 102.172 0.208588 -0.891573 0.607729
1562 1 79.5329 45.9198 105.543 0.232113 -0.685996 0.191453
1564 1 82.1482 44.8225 104.891 8.82986e-05 0.000182964 -0.000224844
1569 1 82.7167 48.1631 101.918 0.000354303 -0.000330879 4.2463e-05
1774 5 80.5317 40.8216 108.859 0.45391 0.01428 -0.269724
1775 1 82.2712 38.428 110.14 0.0937567 0.414093 -0.34748
1778 1 83.4468 41.0662 111.463 0.596039 -0.518394 -0.915261
1776 3 84.12 40.0677 108.986 -0.000353368 5.04823e-05 -0.000138108
1777 2 82.6441 41.9163 107.866 -0.000194129 -0.000193857 0.000245677
1514 1 82.1698 39.1563 107.067 -0.000202625 6.32644e-05 9.33985e-05
1816 1 82.2821 43.4918 110.007 0.195154 -0.56821 -0.357429
1817 2 82.2127 44.7776 107.621 -0.565963 0.0503266 0.0678492
102 1 81.8678 48.3047 76.9261 1.42789 -0.0801881 -0.06094
103 2 81.5063 50.0154 79.0202 0.36537 -0.417098 0.484694
298 2 81.2355 50.1707 83.9982 0.000264744 -0.000482965 -1.79447e-05
304 1 81.7068 51.7656 81.3157 0.926643 0.313968 0.389284
297 1 78.7864 50.2338 79.695 1.68664 0.630134 0.0301784
300 1 79.2866 51.6468 82.5496 -0.382617 -0.447849 0.878505
305 1 84.2193 51.1033 79.9701 0.177707 0.511271 0.913367
307 3 84.1146 53.0581 83.0631 0.556283 0.12247 -0.404476
303 1 82.5836 48.9971 81.5909 -9.093e-05 -0.000201403 0.000168543
302 1 83.9158 50.5159 83.9386 7.54169e-05 -9.874e-05 -0.000333353
301 1 78.2987 49.3335 84.4938 0.000105356 -1.41878e-05 -0.000580025
267 4 79.8858 48.4625 82.2451 0.000293792 -0.000575892 -2.39528e-05