LAMMPS (2 Aug 2023)
WARNING: Using I/O redirection is unreliable with parallel runs. Better to use the -in switch to read input files. (src/lammps.cpp:537)
OMP_NUM_THREADS environment is not set. Defaulting to 1 thread. (src/comm.cpp:98)
  using 1 OpenMP thread(s) per MPI task

            dimension 3
            units metal
            boundary s s s
            atom_style atomic
            timestep 0.001
            region myregion block 68.20034 114.37180000000001 16.759 59.9777 72.0658940974212 119.97568939828079  units box
            create_box 5 myregion
Created orthogonal box = (68.20034 16.759 72.065894) to (114.3718 59.9777 119.97569)
  6 by 4 by 8 MPI processor grid
            mass 1 91.224
            mass 2 63.546
            mass 3 58.693
            mass 4 26.982
            mass 5 47.867 
            pair_style eam/alloy
            pair_coeff * * ZrTiCuNiAl_Zhou04.eam.alloy Zr Cu Ni Al Ti
Reading eam/alloy potential file ZrTiCuNiAl_Zhou04.eam.alloy with DATE: 2018-03-30
            create_atoms 1 single 80.3283 27.9578 79.47461088825214
Created 1 atoms
  using lattice units in orthogonal box = (68.195723 16.754678 72.061103) to (114.37642 59.982022 119.98048)
  create_atoms CPU = 0.000 seconds
create_atoms 1 single 83.23294 27.4168 78.89188217765042
Created 1 atoms
  using lattice units in orthogonal box = (68.195723 16.754678 72.061103) to (114.37642 59.982022 119.98048)
  create_atoms CPU = 0.000 seconds
create_atoms 1 single 85.76458 28.0728 77.79573856733523
Created 1 atoms
  using lattice units in orthogonal box = (68.195723 16.754678 72.061103) to (114.37642 59.982022 119.98048)
  create_atoms CPU = 0.000 seconds
create_atoms 2 single 88.32672000000001 27.8478 77.12566773638967
Created 1 atoms
  using lattice units in orthogonal box = (68.195723 16.754678 72.061103) to (114.37642 59.982022 119.98048)
  create_atoms CPU = 0.000 seconds
create_atoms 1 single 88.82116 25.8319 79.52544848137535
Created 1 atoms
  using lattice units in orthogonal box = (68.195723 16.754678 72.061103) to (114.37642 59.982022 119.98048)
  create_atoms CPU = 0.000 seconds
create_atoms 2 single 91.15168 27.4889 79.16969730659025
Created 1 atoms
  using lattice units in orthogonal box = (68.195723 16.754678 72.061103) to (114.37642 59.982022 119.98048)
  create_atoms CPU = 0.000 seconds
create_atoms 3 single 76.76796 31.3167 79.44706452722062
Created 1 atoms
  using lattice units in orthogonal box = (68.195723 16.754678 72.061103) to (114.37642 59.982022 119.98048)
  create_atoms CPU = 0.000 seconds
create_atoms 2 single 78.32684 30.2157 78.06381169054441
Created 1 atoms
  using lattice units in orthogonal box = (68.195723 16.754678 72.061103) to (114.37642 59.982022 119.98048)
  create_atoms CPU = 0.000 seconds
create_atoms 3 single 78.58946 33.0285 76.59948744985674
Created 1 atoms
  using lattice units in orthogonal box = (68.195723 16.754678 72.061103) to (114.37642 59.982022 119.98048)
  create_atoms CPU = 0.000 seconds
create_atoms 3 single 80.96334 30.3521 78.69704206303724
Created 1 atoms
  using lattice units in orthogonal box = (68.195723 16.754678 72.061103) to (114.37642 59.982022 119.98048)
  create_atoms CPU = 0.000 seconds
create_atoms 1 single 83.46816 30.2683 78.03559346704871
Created 1 atoms
  using lattice units in orthogonal box = (68.195723 16.754678 72.061103) to (114.37642 59.982022 119.98048)
  create_atoms CPU = 0.000 seconds
create_atoms 1 single 81.11588 32.1646 76.73307610315186
Created 1 atoms
  using lattice units in orthogonal box = (68.195723 16.754678 72.061103) to (114.37642 59.982022 119.98048)
  create_atoms CPU = 0.000 seconds
create_atoms 3 single 84.30998 29.8351 75.69448871060172
Created 1 atoms
  using lattice units in orthogonal box = (68.195723 16.754678 72.061103) to (114.37642 59.982022 119.98048)
  create_atoms CPU = 0.000 seconds
create_atoms 1 single 84.32236 32.4499 76.35817684813753
Created 1 atoms
  using lattice units in orthogonal box = (68.195723 16.754678 72.061103) to (114.37642 59.982022 119.98048)
  create_atoms CPU = 0.000 seconds
create_atoms 1 single 87.14064 30.535 76.5717171346705
Created 1 atoms
  using lattice units in orthogonal box = (68.195723 16.754678 72.061103) to (114.37642 59.982022 119.98048)
  create_atoms CPU = 0.000 seconds
create_atoms 3 single 87.05856 33.2428 76.87607083094555
Created 1 atoms
  using lattice units in orthogonal box = (68.195723 16.754678 72.061103) to (114.37642 59.982022 119.98048)
  create_atoms CPU = 0.000 seconds
create_atoms 2 single 86.34262000000001 30.8024 78.88146830945558
Created 1 atoms
  using lattice units in orthogonal box = (68.195723 16.754678 72.061103) to (114.37642 59.982022 119.98048)
  create_atoms CPU = 0.000 seconds
create_atoms 1 single 88.8896 32.0486 79.45053581661891
Created 1 atoms
  using lattice units in orthogonal box = (68.195723 16.754678 72.061103) to (114.37642 59.982022 119.98048)
  create_atoms CPU = 0.000 seconds
create_atoms 1 single 90.35430000000001 30.0396 77.9673994269341
Created 1 atoms
  using lattice units in orthogonal box = (68.195723 16.754678 72.061103) to (114.37642 59.982022 119.98048)
  create_atoms CPU = 0.000 seconds
create_atoms 1 single 93.06264 31.6316 77.63997845272206
Created 1 atoms
  using lattice units in orthogonal box = (68.195723 16.754678 72.061103) to (114.37642 59.982022 119.98048)
  create_atoms CPU = 0.000 seconds
create_atoms 1 single 89.7608 32.9053 76.75356790830945
Created 1 atoms
  using lattice units in orthogonal box = (68.195723 16.754678 72.061103) to (114.37642 59.982022 119.98048)
  create_atoms CPU = 0.000 seconds
create_atoms 1 single 95.59882 33.4065 78.06515541547277
Created 1 atoms
  using lattice units in orthogonal box = (68.195723 16.754678 72.061103) to (114.37642 59.982022 119.98048)
  create_atoms CPU = 0.000 seconds
create_atoms 4 single 74.42924000000001 36.0718 77.52800137535816
Created 1 atoms
  using lattice units in orthogonal box = (68.195723 16.754678 72.061103) to (114.37642 59.982022 119.98048)
  create_atoms CPU = 0.000 seconds
create_atoms 5 single 78.47382 35.6346 75.6811634383954
Created 1 atoms
  using lattice units in orthogonal box = (68.195723 16.754678 72.061103) to (114.37642 59.982022 119.98048)
  create_atoms CPU = 0.000 seconds
create_atoms 1 single 77.41246 34.7897 77.94713157593122
Created 1 atoms
  using lattice units in orthogonal box = (68.195723 16.754678 72.061103) to (114.37642 59.982022 119.98048)
  create_atoms CPU = 0.000 seconds
create_atoms 2 single 76.59936 37.6213 77.08602785100287
Created 1 atoms
  using lattice units in orthogonal box = (68.195723 16.754678 72.061103) to (114.37642 59.982022 119.98048)
  create_atoms CPU = 0.000 seconds
create_atoms 1 single 79.51388 37.3655 78.829286991404
Created 1 atoms
  using lattice units in orthogonal box = (68.195723 16.754678 72.061103) to (114.37642 59.982022 119.98048)
  create_atoms CPU = 0.000 seconds
create_atoms 2 single 83.48258 33.6035 78.42225031518623
Created 1 atoms
  using lattice units in orthogonal box = (68.195723 16.754678 72.061103) to (114.37642 59.982022 119.98048)
  create_atoms CPU = 0.000 seconds
create_atoms 1 single 80.93531999999999 34.6329 78.5404981088825
Created 1 atoms
  using lattice units in orthogonal box = (68.195723 16.754678 72.061103) to (114.37642 59.982022 119.98048)
  create_atoms CPU = 0.000 seconds
create_atoms 3 single 80.8081 36.8803 76.88458108882521
Created 1 atoms
  using lattice units in orthogonal box = (68.195723 16.754678 72.061103) to (114.37642 59.982022 119.98048)
  create_atoms CPU = 0.000 seconds
create_atoms 1 single 81.7863 34.8223 75.74409455587391
Created 1 atoms
  using lattice units in orthogonal box = (68.195723 16.754678 72.061103) to (114.37642 59.982022 119.98048)
  create_atoms CPU = 0.000 seconds
create_atoms 1 single 83.57248 36.4868 78.50007438395416
Created 1 atoms
  using lattice units in orthogonal box = (68.195723 16.754678 72.061103) to (114.37642 59.982022 119.98048)
  create_atoms CPU = 0.000 seconds
create_atoms 4 single 82.98125999999999 36.7337 74.31179575931232
Created 1 atoms
  using lattice units in orthogonal box = (68.195723 16.754678 72.061103) to (114.37642 59.982022 119.98048)
  create_atoms CPU = 0.000 seconds
create_atoms 1 single 85.23296 35.3785 76.78536939828079
Created 1 atoms
  using lattice units in orthogonal box = (68.195723 16.754678 72.061103) to (114.37642 59.982022 119.98048)
  create_atoms CPU = 0.000 seconds
create_atoms 4 single 85.73053999999999 37.7225 74.80583862464182
Created 1 atoms
  using lattice units in orthogonal box = (68.195723 16.754678 72.061103) to (114.37642 59.982022 119.98048)
  create_atoms CPU = 0.000 seconds
create_atoms 2 single 86.13436 33.5034 79.08929776504299
Created 1 atoms
  using lattice units in orthogonal box = (68.195723 16.754678 72.061103) to (114.37642 59.982022 119.98048)
  create_atoms CPU = 0.000 seconds
create_atoms 4 single 87.31158 37.7329 77.87860160458452
Created 1 atoms
  using lattice units in orthogonal box = (68.195723 16.754678 72.061103) to (114.37642 59.982022 119.98048)
  create_atoms CPU = 0.000 seconds
create_atoms 1 single 87.90554 35.5437 75.85002487106016
Created 1 atoms
  using lattice units in orthogonal box = (68.195723 16.754678 72.061103) to (114.37642 59.982022 119.98048)
  create_atoms CPU = 0.000 seconds
create_atoms 1 single 88.39848 35.0831 79.09691220630373
Created 1 atoms
  using lattice units in orthogonal box = (68.195723 16.754678 72.061103) to (114.37642 59.982022 119.98048)
  create_atoms CPU = 0.000 seconds
create_atoms 4 single 90.40894 36.6066 75.10145810888253
Created 1 atoms
  using lattice units in orthogonal box = (68.195723 16.754678 72.061103) to (114.37642 59.982022 119.98048)
  create_atoms CPU = 0.000 seconds
create_atoms 3 single 93.50708 34.2512 79.11594830945558
Created 1 atoms
  using lattice units in orthogonal box = (68.195723 16.754678 72.061103) to (114.37642 59.982022 119.98048)
  create_atoms CPU = 0.000 seconds
create_atoms 1 single 92.31086 34.2668 76.13702212034383
Created 1 atoms
  using lattice units in orthogonal box = (68.195723 16.754678 72.061103) to (114.37642 59.982022 119.98048)
  create_atoms CPU = 0.000 seconds
create_atoms 1 single 90.99872 35.5101 78.25663621776505
Created 1 atoms
  using lattice units in orthogonal box = (68.195723 16.754678 72.061103) to (114.37642 59.982022 119.98048)
  create_atoms CPU = 0.000 seconds
create_atoms 1 single 93.89016 36.6853 77.89002326647564
Created 1 atoms
  using lattice units in orthogonal box = (68.195723 16.754678 72.061103) to (114.37642 59.982022 119.98048)
  create_atoms CPU = 0.000 seconds
create_atoms 4 single 89.85276 38.1028 77.1705705444126
Created 1 atoms
  using lattice units in orthogonal box = (68.195723 16.754678 72.061103) to (114.37642 59.982022 119.98048)
  create_atoms CPU = 0.000 seconds
create_atoms 2 single 97.11166 37.1609 79.08985765042979
Created 1 atoms
  using lattice units in orthogonal box = (68.195723 16.754678 72.061103) to (114.37642 59.982022 119.98048)
  create_atoms CPU = 0.000 seconds
create_atoms 1 single 98.56392 34.6253 79.47886601719198
Created 1 atoms
  using lattice units in orthogonal box = (68.195723 16.754678 72.061103) to (114.37642 59.982022 119.98048)
  create_atoms CPU = 0.000 seconds
create_atoms 4 single 71.96062 39.5491 78.97104997134669
Created 1 atoms
  using lattice units in orthogonal box = (68.195723 16.754678 72.061103) to (114.37642 59.982022 119.98048)
  create_atoms CPU = 0.000 seconds
create_atoms 1 single 74.80896 38.8895 78.54061008595987
Created 1 atoms
  using lattice units in orthogonal box = (68.195723 16.754678 72.061103) to (114.37642 59.982022 119.98048)
  create_atoms CPU = 0.000 seconds
create_atoms 4 single 73.71284 41.527 77.29900825214898
Created 1 atoms
  using lattice units in orthogonal box = (68.195723 16.754678 72.061103) to (114.37642 59.982022 119.98048)
  create_atoms CPU = 0.000 seconds
create_atoms 1 single 78.4847 38.682 75.8269575931232
Created 1 atoms
  using lattice units in orthogonal box = (68.195723 16.754678 72.061103) to (114.37642 59.982022 119.98048)
  create_atoms CPU = 0.000 seconds
create_atoms 1 single 76.39664 40.5321 76.82030624641833
Created 1 atoms
  using lattice units in orthogonal box = (68.195723 16.754678 72.061103) to (114.37642 59.982022 119.98048)
  create_atoms CPU = 0.000 seconds
create_atoms 1 single 78.26712 42.79 76.11283507163323
Created 1 atoms
  using lattice units in orthogonal box = (68.195723 16.754678 72.061103) to (114.37642 59.982022 119.98048)
  create_atoms CPU = 0.000 seconds
create_atoms 1 single 79.5764 40.5537 78.47913467048708
Created 1 atoms
  using lattice units in orthogonal box = (68.195723 16.754678 72.061103) to (114.37642 59.982022 119.98048)
  create_atoms CPU = 0.000 seconds
create_atoms 1 single 78.07958 42.7909 79.19545203438395
Created 1 atoms
  using lattice units in orthogonal box = (68.195723 16.754678 72.061103) to (114.37642 59.982022 119.98048)
  create_atoms CPU = 0.000 seconds
create_atoms 3 single 77.79334 39.1275 79.46072573065902
Created 1 atoms
  using lattice units in orthogonal box = (68.195723 16.754678 72.061103) to (114.37642 59.982022 119.98048)
  create_atoms CPU = 0.000 seconds
create_atoms 5 single 80.99362 38.466 74.79038578796562
Created 1 atoms
  using lattice units in orthogonal box = (68.195723 16.754678 72.061103) to (114.37642 59.982022 119.98048)
  create_atoms CPU = 0.000 seconds
create_atoms 2 single 79.83612000000001 40.9001 75.34915140401145
Created 1 atoms
  using lattice units in orthogonal box = (68.195723 16.754678 72.061103) to (114.37642 59.982022 119.98048)
  create_atoms CPU = 0.000 seconds
create_atoms 3 single 84.00644000000001 43.2042 77.26093604584527
Created 1 atoms
  using lattice units in orthogonal box = (68.195723 16.754678 72.061103) to (114.37642 59.982022 119.98048)
  create_atoms CPU = 0.000 seconds
create_atoms 1 single 82.62452 41.0872 75.54399151862464
Created 1 atoms
  using lattice units in orthogonal box = (68.195723 16.754678 72.061103) to (114.37642 59.982022 119.98048)
  create_atoms CPU = 0.000 seconds
create_atoms 1 single 81.90164 39.2016 77.92384034383953
Created 1 atoms
  using lattice units in orthogonal box = (68.195723 16.754678 72.061103) to (114.37642 59.982022 119.98048)
  create_atoms CPU = 0.000 seconds
create_atoms 3 single 81.5326 41.9469 77.67345959885385
Created 1 atoms
  using lattice units in orthogonal box = (68.195723 16.754678 72.061103) to (114.37642 59.982022 119.98048)
  create_atoms CPU = 0.000 seconds
create_atoms 2 single 84.01706 41.0639 78.5294123782235
Created 1 atoms
  using lattice units in orthogonal box = (68.195723 16.754678 72.061103) to (114.37642 59.982022 119.98048)
  create_atoms CPU = 0.000 seconds
create_atoms 4 single 84.26952 38.6074 76.65312446991403
Created 1 atoms
  using lattice units in orthogonal box = (68.195723 16.754678 72.061103) to (114.37642 59.982022 119.98048)
  create_atoms CPU = 0.000 seconds
create_atoms 4 single 86.22785999999999 39.4083 79.4666605157593
Created 1 atoms
  using lattice units in orthogonal box = (68.195723 16.754678 72.061103) to (114.37642 59.982022 119.98048)
  create_atoms CPU = 0.000 seconds
create_atoms 4 single 84.88554 41.0732 74.16756928366762
Created 1 atoms
  using lattice units in orthogonal box = (68.195723 16.754678 72.061103) to (114.37642 59.982022 119.98048)
  create_atoms CPU = 0.000 seconds
create_atoms 1 single 87.9749 42.5969 75.00392607449855
Created 1 atoms
  using lattice units in orthogonal box = (68.195723 16.754678 72.061103) to (114.37642 59.982022 119.98048)
  create_atoms CPU = 0.000 seconds
create_atoms 1 single 86.07672000000001 41.3441 77.26899839541547
Created 1 atoms
  using lattice units in orthogonal box = (68.195723 16.754678 72.061103) to (114.37642 59.982022 119.98048)
  create_atoms CPU = 0.000 seconds
create_atoms 4 single 87.7431 39.7797 75.5537335243553
Created 1 atoms
  using lattice units in orthogonal box = (68.195723 16.754678 72.061103) to (114.37642 59.982022 119.98048)
  create_atoms CPU = 0.000 seconds
create_atoms 1 single 88.87684 42.876 78.31631999999999
Created 1 atoms
  using lattice units in orthogonal box = (68.195723 16.754678 72.061103) to (114.37642 59.982022 119.98048)
  create_atoms CPU = 0.000 seconds
create_atoms 4 single 89.1152 39.9309 78.93040229226361
Created 1 atoms
  using lattice units in orthogonal box = (68.195723 16.754678 72.061103) to (114.37642 59.982022 119.98048)
  create_atoms CPU = 0.000 seconds
create_atoms 4 single 90.12052 40.8507 74.0658940974212
Created 1 atoms
  using lattice units in orthogonal box = (68.195723 16.754678 72.061103) to (114.37642 59.982022 119.98048)
  create_atoms CPU = 0.000 seconds
create_atoms 1 single 90.7402 41.115 77.14268825214899
Created 1 atoms
  using lattice units in orthogonal box = (68.195723 16.754678 72.061103) to (114.37642 59.982022 119.98048)
  create_atoms CPU = 0.000 seconds
create_atoms 5 single 92.23264 38.9926 76.23970510028653
Created 1 atoms
  using lattice units in orthogonal box = (68.195723 16.754678 72.061103) to (114.37642 59.982022 119.98048)
  create_atoms CPU = 0.000 seconds
create_atoms 1 single 93.30328 41.7899 76.11720217765043
Created 1 atoms
  using lattice units in orthogonal box = (68.195723 16.754678 72.061103) to (114.37642 59.982022 119.98048)
  create_atoms CPU = 0.000 seconds
create_atoms 4 single 92.33478000000001 38.8857 79.47707438395415
Created 1 atoms
  using lattice units in orthogonal box = (68.195723 16.754678 72.061103) to (114.37642 59.982022 119.98048)
  create_atoms CPU = 0.000 seconds
create_atoms 1 single 93.9425 41.2555 79.2898487106017
Created 1 atoms
  using lattice units in orthogonal box = (68.195723 16.754678 72.061103) to (114.37642 59.982022 119.98048)
  create_atoms CPU = 0.000 seconds
create_atoms 1 single 95.3602 39.4288 77.57324011461317
Created 1 atoms
  using lattice units in orthogonal box = (68.195723 16.754678 72.061103) to (114.37642 59.982022 119.98048)
  create_atoms CPU = 0.000 seconds
create_atoms 5 single 96.46256 42.1786 78.5439693982808
Created 1 atoms
  using lattice units in orthogonal box = (68.195723 16.754678 72.061103) to (114.37642 59.982022 119.98048)
  create_atoms CPU = 0.000 seconds
create_atoms 1 single 75.18773999999999 43.697 79.2681251575931
Created 1 atoms
  using lattice units in orthogonal box = (68.195723 16.754678 72.061103) to (114.37642 59.982022 119.98048)
  create_atoms CPU = 0.000 seconds
create_atoms 3 single 75.80164 43.3492 76.70496985673353
Created 1 atoms
  using lattice units in orthogonal box = (68.195723 16.754678 72.061103) to (114.37642 59.982022 119.98048)
  create_atoms CPU = 0.000 seconds
create_atoms 1 single 77.59562000000001 45.5629 78.29302876790831
Created 1 atoms
  using lattice units in orthogonal box = (68.195723 16.754678 72.061103) to (114.37642 59.982022 119.98048)
  create_atoms CPU = 0.000 seconds
create_atoms 5 single 79.04086 45.7224 76.20532813753582
Created 1 atoms
  using lattice units in orthogonal box = (68.195723 16.754678 72.061103) to (114.37642 59.982022 119.98048)
  create_atoms CPU = 0.000 seconds
create_atoms 5 single 79.52144 47.9968 78.08172802292262
Created 1 atoms
  using lattice units in orthogonal box = (68.195723 16.754678 72.061103) to (114.37642 59.982022 119.98048)
  create_atoms CPU = 0.000 seconds
create_atoms 4 single 83.07128 43.6221 74.22255002865329
Created 1 atoms
  using lattice units in orthogonal box = (68.195723 16.754678 72.061103) to (114.37642 59.982022 119.98048)
  create_atoms CPU = 0.000 seconds
create_atoms 2 single 80.3479 43.8363 78.476335243553
Created 1 atoms
  using lattice units in orthogonal box = (68.195723 16.754678 72.061103) to (114.37642 59.982022 119.98048)
  create_atoms CPU = 0.000 seconds
create_atoms 1 single 81.16004000000001 43.9325 75.92336985673352
Created 1 atoms
  using lattice units in orthogonal box = (68.195723 16.754678 72.061103) to (114.37642 59.982022 119.98048)
  create_atoms CPU = 0.000 seconds
create_atoms 1 single 83.62308 45.8998 76.76219014326647
Created 1 atoms
  using lattice units in orthogonal box = (68.195723 16.754678 72.061103) to (114.37642 59.982022 119.98048)
  create_atoms CPU = 0.000 seconds
create_atoms 3 single 81.67862000000001 46.0351 78.13626085959885
Created 1 atoms
  using lattice units in orthogonal box = (68.195723 16.754678 72.061103) to (114.37642 59.982022 119.98048)
  create_atoms CPU = 0.000 seconds
create_atoms 1 single 83.30264 44.0658 79.53575037249283
Created 1 atoms
  using lattice units in orthogonal box = (68.195723 16.754678 72.061103) to (114.37642 59.982022 119.98048)
  create_atoms CPU = 0.000 seconds
create_atoms 1 single 86.00064 44.2055 76.10197329512894
Created 1 atoms
  using lattice units in orthogonal box = (68.195723 16.754678 72.061103) to (114.37642 59.982022 119.98048)
  create_atoms CPU = 0.000 seconds
create_atoms 2 single 88.86568 45.3817 79.45971793696275
Created 1 atoms
  using lattice units in orthogonal box = (68.195723 16.754678 72.061103) to (114.37642 59.982022 119.98048)
  create_atoms CPU = 0.000 seconds
create_atoms 1 single 86.74824 46.8319 77.72620080229225
Created 1 atoms
  using lattice units in orthogonal box = (68.195723 16.754678 72.061103) to (114.37642 59.982022 119.98048)
  create_atoms CPU = 0.000 seconds
create_atoms 1 single 89.05496000000001 45.3681 76.66387426934097
Created 1 atoms
  using lattice units in orthogonal box = (68.195723 16.754678 72.061103) to (114.37642 59.982022 119.98048)
  create_atoms CPU = 0.000 seconds
create_atoms 2 single 89.59524 47.7642 78.18530681948423
Created 1 atoms
  using lattice units in orthogonal box = (68.195723 16.754678 72.061103) to (114.37642 59.982022 119.98048)
  create_atoms CPU = 0.000 seconds
create_atoms 1 single 86.5169 43.9939 79.43653868194842
Created 1 atoms
  using lattice units in orthogonal box = (68.195723 16.754678 72.061103) to (114.37642 59.982022 119.98048)
  create_atoms CPU = 0.000 seconds
create_atoms 1 single 90.89884 43.7017 75.36180481375358
Created 1 atoms
  using lattice units in orthogonal box = (68.195723 16.754678 72.061103) to (114.37642 59.982022 119.98048)
  create_atoms CPU = 0.000 seconds
create_atoms 2 single 91.45938 43.6098 78.27891965616045
Created 1 atoms
  using lattice units in orthogonal box = (68.195723 16.754678 72.061103) to (114.37642 59.982022 119.98048)
  create_atoms CPU = 0.000 seconds
create_atoms 2 single 93.9681 43.8652 78.20591060171918
Created 1 atoms
  using lattice units in orthogonal box = (68.195723 16.754678 72.061103) to (114.37642 59.982022 119.98048)
  create_atoms CPU = 0.000 seconds
create_atoms 1 single 92.06716 46.1428 77.302703495702
Created 1 atoms
  using lattice units in orthogonal box = (68.195723 16.754678 72.061103) to (114.37642 59.982022 119.98048)
  create_atoms CPU = 0.000 seconds
create_atoms 4 single 97.11468 45.2181 79.31358785100286
Created 1 atoms
  using lattice units in orthogonal box = (68.195723 16.754678 72.061103) to (114.37642 59.982022 119.98048)
  create_atoms CPU = 0.000 seconds
create_atoms 1 single 81.86784 48.3047 76.92612458452722
Created 1 atoms
  using lattice units in orthogonal box = (68.195723 16.754678 72.061103) to (114.37642 59.982022 119.98048)
  create_atoms CPU = 0.000 seconds
create_atoms 2 single 81.50628 50.0154 79.02020790830946
Created 1 atoms
  using lattice units in orthogonal box = (68.195723 16.754678 72.061103) to (114.37642 59.982022 119.98048)
  create_atoms CPU = 0.000 seconds
create_atoms 1 single 85.02538 48.9366 78.38809730659024
Created 1 atoms
  using lattice units in orthogonal box = (68.195723 16.754678 72.061103) to (114.37642 59.982022 119.98048)
  create_atoms CPU = 0.000 seconds
create_atoms 2 single 87.16246000000001 22.6264 84.43396366762177
Created 1 atoms
  using lattice units in orthogonal box = (68.195723 16.754678 72.061103) to (114.37642 59.982022 119.98048)
  create_atoms CPU = 0.000 seconds
create_atoms 1 single 89.64066 23.4217 84.1243470487106
Created 1 atoms
  using lattice units in orthogonal box = (68.195723 16.754678 72.061103) to (114.37642 59.982022 119.98048)
  create_atoms CPU = 0.000 seconds
create_atoms 1 single 75.44446 26.8078 83.43848744985674
Created 1 atoms
  using lattice units in orthogonal box = (68.195723 16.754678 72.061103) to (114.37642 59.982022 119.98048)
  create_atoms CPU = 0.000 seconds
create_atoms 3 single 77.56402 25.184 83.05429409742119
Created 1 atoms
  using lattice units in orthogonal box = (68.195723 16.754678 72.061103) to (114.37642 59.982022 119.98048)
  create_atoms CPU = 0.000 seconds
create_atoms 3 single 77.54034 27.7613 82.71645925501433
Created 1 atoms
  using lattice units in orthogonal box = (68.195723 16.754678 72.061103) to (114.37642 59.982022 119.98048)
  create_atoms CPU = 0.000 seconds
create_atoms 1 single 79.73816 26.4182 82.21345822349569
Created 1 atoms
  using lattice units in orthogonal box = (68.195723 16.754678 72.061103) to (114.37642 59.982022 119.98048)
  create_atoms CPU = 0.000 seconds
create_atoms 1 single 80.30418 23.9642 84.52948011461318
Created 1 atoms
  using lattice units in orthogonal box = (68.195723 16.754678 72.061103) to (114.37642 59.982022 119.98048)
  create_atoms CPU = 0.000 seconds
create_atoms 2 single 85.5527 24.263 85.02643438395415
Created 1 atoms
  using lattice units in orthogonal box = (68.195723 16.754678 72.061103) to (114.37642 59.982022 119.98048)
  create_atoms CPU = 0.000 seconds
create_atoms 1 single 82.10288 25.5922 80.66683083094556
Created 1 atoms
  using lattice units in orthogonal box = (68.195723 16.754678 72.061103) to (114.37642 59.982022 119.98048)
  create_atoms CPU = 0.000 seconds
create_atoms 3 single 82.09518 27.8257 82.48869787965616
Created 1 atoms
  using lattice units in orthogonal box = (68.195723 16.754678 72.061103) to (114.37642 59.982022 119.98048)
  create_atoms CPU = 0.000 seconds
create_atoms 4 single 84.8307 24.0573 81.95826246418336
Created 1 atoms
  using lattice units in orthogonal box = (68.195723 16.754678 72.061103) to (114.37642 59.982022 119.98048)
  create_atoms CPU = 0.000 seconds
create_atoms 1 single 82.7603 25.1262 83.81316275071633
Created 1 atoms
  using lattice units in orthogonal box = (68.195723 16.754678 72.061103) to (114.37642 59.982022 119.98048)
  create_atoms CPU = 0.000 seconds
create_atoms 1 single 84.83384 27.1441 82.45667243553008
Created 1 atoms
  using lattice units in orthogonal box = (68.195723 16.754678 72.061103) to (114.37642 59.982022 119.98048)
  create_atoms CPU = 0.000 seconds
create_atoms 3 single 87.94726 23.8627 81.20342498567334
Created 1 atoms
  using lattice units in orthogonal box = (68.195723 16.754678 72.061103) to (114.37642 59.982022 119.98048)
  create_atoms CPU = 0.000 seconds
create_atoms 1 single 86.20902000000001 26.0614 80.30805627507162
Created 1 atoms
  using lattice units in orthogonal box = (68.195723 16.754678 72.061103) to (114.37642 59.982022 119.98048)
  create_atoms CPU = 0.000 seconds
create_atoms 4 single 87.26952000000001 25.3373 83.68248550143267
Created 1 atoms
  using lattice units in orthogonal box = (68.195723 16.754678 72.061103) to (114.37642 59.982022 119.98048)
  create_atoms CPU = 0.000 seconds
create_atoms 1 single 90.98128 23.996 81.87058441260744
Created 1 atoms
  using lattice units in orthogonal box = (68.195723 16.754678 72.061103) to (114.37642 59.982022 119.98048)
  create_atoms CPU = 0.000 seconds
create_atoms 3 single 89.29922 25.8244 82.53696
Created 1 atoms
  using lattice units in orthogonal box = (68.195723 16.754678 72.061103) to (114.37642 59.982022 119.98048)
  create_atoms CPU = 0.000 seconds
create_atoms 4 single 87.89958 27.9109 82.56988126074498
Created 1 atoms
  using lattice units in orthogonal box = (68.195723 16.754678 72.061103) to (114.37642 59.982022 119.98048)
  create_atoms CPU = 0.000 seconds
create_atoms 2 single 91.97174000000001 25.1436 84.66262085959885
Created 1 atoms
  using lattice units in orthogonal box = (68.195723 16.754678 72.061103) to (114.37642 59.982022 119.98048)
  create_atoms CPU = 0.000 seconds
create_atoms 1 single 91.45126 26.9524 82.02253730659024
Created 1 atoms
  using lattice units in orthogonal box = (68.195723 16.754678 72.061103) to (114.37642 59.982022 119.98048)
  create_atoms CPU = 0.000 seconds
create_atoms 1 single 94.11576000000001 26.6698 80.89716767908308
Created 1 atoms
  using lattice units in orthogonal box = (68.195723 16.754678 72.061103) to (114.37642 59.982022 119.98048)
  create_atoms CPU = 0.000 seconds
create_atoms 1 single 94.07446 25.0994 83.48047885386819
Created 1 atoms
  using lattice units in orthogonal box = (68.195723 16.754678 72.061103) to (114.37642 59.982022 119.98048)
  create_atoms CPU = 0.000 seconds
create_atoms 3 single 93.7699 28.4522 82.69619140401146
Created 1 atoms
  using lattice units in orthogonal box = (68.195723 16.754678 72.061103) to (114.37642 59.982022 119.98048)
  create_atoms CPU = 0.000 seconds
create_atoms 1 single 96.99482 26.5229 83.55427174785099
Created 1 atoms
  using lattice units in orthogonal box = (68.195723 16.754678 72.061103) to (114.37642 59.982022 119.98048)
  create_atoms CPU = 0.000 seconds
create_atoms 3 single 99.89304000000001 27.065 84.5780781661891
Created 1 atoms
  using lattice units in orthogonal box = (68.195723 16.754678 72.061103) to (114.37642 59.982022 119.98048)
  create_atoms CPU = 0.000 seconds
create_atoms 5 single 71.61176 30.2144 84.91882441260744
Created 1 atoms
  using lattice units in orthogonal box = (68.195723 16.754678 72.061103) to (114.37642 59.982022 119.98048)
  create_atoms CPU = 0.000 seconds
create_atoms 1 single 75.22236000000001 29.3477 81.70508229226361
Created 1 atoms
  using lattice units in orthogonal box = (68.195723 16.754678 72.061103) to (114.37642 59.982022 119.98048)
  create_atoms CPU = 0.000 seconds
create_atoms 1 single 74.86934 32.2291 81.13478303724926
Created 1 atoms
  using lattice units in orthogonal box = (68.195723 16.754678 72.061103) to (114.37642 59.982022 119.98048)
  create_atoms CPU = 0.000 seconds
create_atoms 1 single 74.2043 29.3183 84.41168022922635
Created 1 atoms
  using lattice units in orthogonal box = (68.195723 16.754678 72.061103) to (114.37642 59.982022 119.98048)
  create_atoms CPU = 0.000 seconds
create_atoms 2 single 75.8222 31.5057 84.24203495702005
Created 1 atoms
  using lattice units in orthogonal box = (68.195723 16.754678 72.061103) to (114.37642 59.982022 119.98048)
  create_atoms CPU = 0.000 seconds
create_atoms 1 single 72.91392 32.2351 83.51228034383954
Created 1 atoms
  using lattice units in orthogonal box = (68.195723 16.754678 72.061103) to (114.37642 59.982022 119.98048)
  create_atoms CPU = 0.000 seconds
create_atoms 1 single 77.80712000000001 28.7317 80.30581673352435
Created 1 atoms
  using lattice units in orthogonal box = (68.195723 16.754678 72.061103) to (114.37642 59.982022 119.98048)
  create_atoms CPU = 0.000 seconds
create_atoms 1 single 80.67254000000001 30.2662 81.63084148997135
Created 1 atoms
  using lattice units in orthogonal box = (68.195723 16.754678 72.061103) to (114.37642 59.982022 119.98048)
  create_atoms CPU = 0.000 seconds
create_atoms 1 single 77.92224 30.9282 82.43203747851003
Created 1 atoms
  using lattice units in orthogonal box = (68.195723 16.754678 72.061103) to (114.37642 59.982022 119.98048)
  create_atoms CPU = 0.000 seconds
create_atoms 1 single 79.48902 32.4981 79.56900756446991
Created 1 atoms
  using lattice units in orthogonal box = (68.195723 16.754678 72.061103) to (114.37642 59.982022 119.98048)
  create_atoms CPU = 0.000 seconds
create_atoms 3 single 79.82509999999999 28.9009 83.5712922636103
Created 1 atoms
  using lattice units in orthogonal box = (68.195723 16.754678 72.061103) to (114.37642 59.982022 119.98048)
  create_atoms CPU = 0.000 seconds
create_atoms 1 single 80.31302 33.0406 82.90032561604583
Created 1 atoms
  using lattice units in orthogonal box = (68.195723 16.754678 72.061103) to (114.37642 59.982022 119.98048)
  create_atoms CPU = 0.000 seconds
create_atoms 1 single 82.09506 30.6003 84.99944790830945
Created 1 atoms
  using lattice units in orthogonal box = (68.195723 16.754678 72.061103) to (114.37642 59.982022 119.98048)
  create_atoms CPU = 0.000 seconds
create_atoms 1 single 83.28664 29.6144 81.0804741547278
Created 1 atoms
  using lattice units in orthogonal box = (68.195723 16.754678 72.061103) to (114.37642 59.982022 119.98048)
  create_atoms CPU = 0.000 seconds
create_atoms 2 single 82.38586000000001 32.2711 80.04782154727793
Created 1 atoms
  using lattice units in orthogonal box = (68.195723 16.754678 72.061103) to (114.37642 59.982022 119.98048)
  create_atoms CPU = 0.000 seconds
create_atoms 1 single 85.2229 31.798 80.79873982808022
Created 1 atoms
  using lattice units in orthogonal box = (68.195723 16.754678 72.061103) to (114.37642 59.982022 119.98048)
  create_atoms CPU = 0.000 seconds
create_atoms 2 single 84.12599999999999 29.2523 84.11830028653294
Created 1 atoms
  using lattice units in orthogonal box = (68.195723 16.754678 72.061103) to (114.37642 59.982022 119.98048)
  create_atoms CPU = 0.000 seconds
create_atoms 1 single 83.71326 31.998 83.29347713467048
Created 1 atoms
  using lattice units in orthogonal box = (68.195723 16.754678 72.061103) to (114.37642 59.982022 119.98048)
  create_atoms CPU = 0.000 seconds
create_atoms 1 single 86.72864 32.9023 84.0120340401146
Created 1 atoms
  using lattice units in orthogonal box = (68.195723 16.754678 72.061103) to (114.37642 59.982022 119.98048)
  create_atoms CPU = 0.000 seconds
create_atoms 2 single 86.12888000000001 30.0268 83.1941534670487
Created 1 atoms
  using lattice units in orthogonal box = (68.195723 16.754678 72.061103) to (114.37642 59.982022 119.98048)
  create_atoms CPU = 0.000 seconds
create_atoms 2 single 85.74502 28.9799 80.50569581661891
Created 1 atoms
  using lattice units in orthogonal box = (68.195723 16.754678 72.061103) to (114.37642 59.982022 119.98048)
  create_atoms CPU = 0.000 seconds
create_atoms 1 single 88.6638 28.7673 79.93147736389685
Created 1 atoms
  using lattice units in orthogonal box = (68.195723 16.754678 72.061103) to (114.37642 59.982022 119.98048)
  create_atoms CPU = 0.000 seconds
create_atoms 1 single 88.22416 30.7481 82.00630063037248
Created 1 atoms
  using lattice units in orthogonal box = (68.195723 16.754678 72.061103) to (114.37642 59.982022 119.98048)
  create_atoms CPU = 0.000 seconds
create_atoms 4 single 90.60188000000001 28.8362 83.83186292263609
Created 1 atoms
  using lattice units in orthogonal box = (68.195723 16.754678 72.061103) to (114.37642 59.982022 119.98048)
  create_atoms CPU = 0.000 seconds
create_atoms 4 single 91.05404 32.3234 82.73101627507162
Created 1 atoms
  using lattice units in orthogonal box = (68.195723 16.754678 72.061103) to (114.37642 59.982022 119.98048)
  create_atoms CPU = 0.000 seconds
create_atoms 3 single 95.05392 32.5755 80.6260711747851
Created 1 atoms
  using lattice units in orthogonal box = (68.195723 16.754678 72.061103) to (114.37642 59.982022 119.98048)
  create_atoms CPU = 0.000 seconds
create_atoms 4 single 91.41334 29.9702 81.41528561604584
Created 1 atoms
  using lattice units in orthogonal box = (68.195723 16.754678 72.061103) to (114.37642 59.982022 119.98048)
  create_atoms CPU = 0.000 seconds
create_atoms 1 single 93.53528000000001 29.499 79.92498269340973
Created 1 atoms
  using lattice units in orthogonal box = (68.195723 16.754678 72.061103) to (114.37642 59.982022 119.98048)
  create_atoms CPU = 0.000 seconds
create_atoms 1 single 92.06742 32.4645 80.05330842406875
Created 1 atoms
  using lattice units in orthogonal box = (68.195723 16.754678 72.061103) to (114.37642 59.982022 119.98048)
  create_atoms CPU = 0.000 seconds
create_atoms 1 single 94.63248 31.1311 82.7428858452722
Created 1 atoms
  using lattice units in orthogonal box = (68.195723 16.754678 72.061103) to (114.37642 59.982022 119.98048)
  create_atoms CPU = 0.000 seconds
create_atoms 4 single 93.10116000000001 30.311 84.53194361031517
Created 1 atoms
  using lattice units in orthogonal box = (68.195723 16.754678 72.061103) to (114.37642 59.982022 119.98048)
  create_atoms CPU = 0.000 seconds
create_atoms 3 single 96.11498 28.8756 82.10237696275071
Created 1 atoms
  using lattice units in orthogonal box = (68.195723 16.754678 72.061103) to (114.37642 59.982022 119.98048)
  create_atoms CPU = 0.000 seconds
create_atoms 3 single 97.21506 31.13 82.61377627507163
Created 1 atoms
  using lattice units in orthogonal box = (68.195723 16.754678 72.061103) to (114.37642 59.982022 119.98048)
  create_atoms CPU = 0.000 seconds
create_atoms 1 single 96.30316 30.6328 79.6995728366762
Created 1 atoms
  using lattice units in orthogonal box = (68.195723 16.754678 72.061103) to (114.37642 59.982022 119.98048)
  create_atoms CPU = 0.000 seconds
create_atoms 1 single 98.90115999999999 29.262 81.9665487679083
Created 1 atoms
  using lattice units in orthogonal box = (68.195723 16.754678 72.061103) to (114.37642 59.982022 119.98048)
  create_atoms CPU = 0.000 seconds
create_atoms 3 single 97.63992 33.015 81.14284538681949
Created 1 atoms
  using lattice units in orthogonal box = (68.195723 16.754678 72.061103) to (114.37642 59.982022 119.98048)
  create_atoms CPU = 0.000 seconds
create_atoms 5 single 99.37895999999999 31.6255 80.34624045845271
Created 1 atoms
  using lattice units in orthogonal box = (68.195723 16.754678 72.061103) to (114.37642 59.982022 119.98048)
  create_atoms CPU = 0.000 seconds
create_atoms 5 single 98.58798 29.3114 84.65769386819483
Created 1 atoms
  using lattice units in orthogonal box = (68.195723 16.754678 72.061103) to (114.37642 59.982022 119.98048)
  create_atoms CPU = 0.000 seconds
create_atoms 1 single 99.86982 32.1264 83.59850269340974
Created 1 atoms
  using lattice units in orthogonal box = (68.195723 16.754678 72.061103) to (114.37642 59.982022 119.98048)
  create_atoms CPU = 0.000 seconds
create_atoms 1 single 101.7115 29.8015 84.79520171919769
Created 1 atoms
  using lattice units in orthogonal box = (68.195723 16.754678 72.061103) to (114.37642 59.982022 119.98048)
  create_atoms CPU = 0.000 seconds
create_atoms 3 single 102.83692 32.2138 84.12535484240688
Created 1 atoms
  using lattice units in orthogonal box = (68.195723 16.754678 72.061103) to (114.37642 59.982022 119.98048)
  create_atoms CPU = 0.000 seconds
create_atoms 1 single 71.82684 37.0667 82.32397959885387
Created 1 atoms
  using lattice units in orthogonal box = (68.195723 16.754678 72.061103) to (114.37642 59.982022 119.98048)
  create_atoms CPU = 0.000 seconds
create_atoms 5 single 70.48956 38.0601 84.49947025787965
Created 1 atoms
  using lattice units in orthogonal box = (68.195723 16.754678 72.061103) to (114.37642 59.982022 119.98048)
  create_atoms CPU = 0.000 seconds
create_atoms 1 single 73.60604000000001 34.632 82.13249879656159
Created 1 atoms
  using lattice units in orthogonal box = (68.195723 16.754678 72.061103) to (114.37642 59.982022 119.98048)
  create_atoms CPU = 0.000 seconds
create_atoms 2 single 75.00174 34.8164 80.14210624641832
Created 1 atoms
  using lattice units in orthogonal box = (68.195723 16.754678 72.061103) to (114.37642 59.982022 119.98048)
  create_atoms CPU = 0.000 seconds
create_atoms 1 single 73.53620000000001 37.1427 80.24445329512893
Created 1 atoms
  using lattice units in orthogonal box = (68.195723 16.754678 72.061103) to (114.37642 59.982022 119.98048)
  create_atoms CPU = 0.000 seconds
create_atoms 2 single 74.55792000000001 36.612 84.20765799426934
Created 1 atoms
  using lattice units in orthogonal box = (68.195723 16.754678 72.061103) to (114.37642 59.982022 119.98048)
  create_atoms CPU = 0.000 seconds
create_atoms 1 single 76.2699 36.4563 82.76337765042979
Created 1 atoms
  using lattice units in orthogonal box = (68.195723 16.754678 72.061103) to (114.37642 59.982022 119.98048)
  create_atoms CPU = 0.000 seconds
create_atoms 3 single 72.6618 35.1056 84.57628653295129
Created 1 atoms
  using lattice units in orthogonal box = (68.195723 16.754678 72.061103) to (114.37642 59.982022 119.98048)
  create_atoms CPU = 0.000 seconds
create_atoms 1 single 77.17836 33.6774 83.67755851002865
Created 1 atoms
  using lattice units in orthogonal box = (68.195723 16.754678 72.061103) to (114.37642 59.982022 119.98048)
  create_atoms CPU = 0.000 seconds
create_atoms 5 single 77.43532 33.6528 80.74196744985673
Created 1 atoms
  using lattice units in orthogonal box = (68.195723 16.754678 72.061103) to (114.37642 59.982022 119.98048)
  create_atoms CPU = 0.000 seconds
create_atoms 3 single 79.71966 35.2129 80.67993214899712
Created 1 atoms
  using lattice units in orthogonal box = (68.195723 16.754678 72.061103) to (114.37642 59.982022 119.98048)
  create_atoms CPU = 0.000 seconds
create_atoms 1 single 77.03196 36.686 80.07581581661891
Created 1 atoms
  using lattice units in orthogonal box = (68.195723 16.754678 72.061103) to (114.37642 59.982022 119.98048)
  create_atoms CPU = 0.000 seconds
create_atoms 1 single 79.86512 37.7594 82.1579175931232
Created 1 atoms
  using lattice units in orthogonal box = (68.195723 16.754678 72.061103) to (114.37642 59.982022 119.98048)
  create_atoms CPU = 0.000 seconds
create_atoms 3 single 78.78656000000001 35.4865 82.7223940401146
Created 1 atoms
  using lattice units in orthogonal box = (68.195723 16.754678 72.061103) to (114.37642 59.982022 119.98048)
  create_atoms CPU = 0.000 seconds
create_atoms 3 single 81.54958 35.6021 83.40802968481374
Created 1 atoms
  using lattice units in orthogonal box = (68.195723 16.754678 72.061103) to (114.37642 59.982022 119.98048)
  create_atoms CPU = 0.000 seconds
create_atoms 1 single 79.03384000000001 37.6388 84.84906269340973
Created 1 atoms
  using lattice units in orthogonal box = (68.195723 16.754678 72.061103) to (114.37642 59.982022 119.98048)
  create_atoms CPU = 0.000 seconds
create_atoms 3 single 82.12478 34.035 81.68750189111746
Created 1 atoms
  using lattice units in orthogonal box = (68.195723 16.754678 72.061103) to (114.37642 59.982022 119.98048)
  create_atoms CPU = 0.000 seconds
create_atoms 1 single 84.65438 34.5699 81.20152137535815
Created 1 atoms
  using lattice units in orthogonal box = (68.195723 16.754678 72.061103) to (114.37642 59.982022 119.98048)
  create_atoms CPU = 0.000 seconds
create_atoms 1 single 82.41068 36.6018 81.03467553008595
Created 1 atoms
  using lattice units in orthogonal box = (68.195723 16.754678 72.061103) to (114.37642 59.982022 119.98048)
  create_atoms CPU = 0.000 seconds
create_atoms 5 single 84.55424000000001 35.2075 84.01259392550142
Created 1 atoms
  using lattice units in orthogonal box = (68.195723 16.754678 72.061103) to (114.37642 59.982022 119.98048)
  create_atoms CPU = 0.000 seconds
create_atoms 3 single 85.34958 37.2817 82.7686405730659
Created 1 atoms
  using lattice units in orthogonal box = (68.195723 16.754678 72.061103) to (114.37642 59.982022 119.98048)
  create_atoms CPU = 0.000 seconds
create_atoms 1 single 83.13858 37.9208 83.93992080229225
Created 1 atoms
  using lattice units in orthogonal box = (68.195723 16.754678 72.061103) to (114.37642 59.982022 119.98048)
  create_atoms CPU = 0.000 seconds
create_atoms 1 single 86.64918 36.5758 80.62148011461316
Created 1 atoms
  using lattice units in orthogonal box = (68.195723 16.754678 72.061103) to (114.37642 59.982022 119.98048)
  create_atoms CPU = 0.000 seconds
create_atoms 3 single 87.1387 35.477 83.37813180515758
Created 1 atoms
  using lattice units in orthogonal box = (68.195723 16.754678 72.061103) to (114.37642 59.982022 119.98048)
  create_atoms CPU = 0.000 seconds
create_atoms 1 single 88.14178 33.7033 81.84706922636101
Created 1 atoms
  using lattice units in orthogonal box = (68.195723 16.754678 72.061103) to (114.37642 59.982022 119.98048)
  create_atoms CPU = 0.000 seconds
create_atoms 1 single 89.62198 36.2661 83.12360790830944
Created 1 atoms
  using lattice units in orthogonal box = (68.195723 16.754678 72.061103) to (114.37642 59.982022 119.98048)
  create_atoms CPU = 0.000 seconds
create_atoms 5 single 90.29038 37.4234 80.4042445845272
Created 1 atoms
  using lattice units in orthogonal box = (68.195723 16.754678 72.061103) to (114.37642 59.982022 119.98048)
  create_atoms CPU = 0.000 seconds
create_atoms 2 single 88.07192 37.8451 84.41761501432664
Created 1 atoms
  using lattice units in orthogonal box = (68.195723 16.754678 72.061103) to (114.37642 59.982022 119.98048)
  create_atoms CPU = 0.000 seconds
create_atoms 4 single 91.17718 34.7122 81.46914659025788
Created 1 atoms
  using lattice units in orthogonal box = (68.195723 16.754678 72.061103) to (114.37642 59.982022 119.98048)
  create_atoms CPU = 0.000 seconds
create_atoms 3 single 93.98502 33.8951 82.26317604584526
Created 1 atoms
  using lattice units in orthogonal box = (68.195723 16.754678 72.061103) to (114.37642 59.982022 119.98048)
  create_atoms CPU = 0.000 seconds
create_atoms 1 single 93.47166 36.3191 81.01978257879655
Created 1 atoms
  using lattice units in orthogonal box = (68.195723 16.754678 72.061103) to (114.37642 59.982022 119.98048)
  create_atoms CPU = 0.000 seconds
create_atoms 2 single 94.74282000000001 35.6021 84.42713306590257
Created 1 atoms
  using lattice units in orthogonal box = (68.195723 16.754678 72.061103) to (114.37642 59.982022 119.98048)
  create_atoms CPU = 0.000 seconds
create_atoms 4 single 92.29458 34.6323 84.52668068767908
Created 1 atoms
  using lattice units in orthogonal box = (68.195723 16.754678 72.061103) to (114.37642 59.982022 119.98048)
  create_atoms CPU = 0.000 seconds
create_atoms 4 single 92.4723 37.1684 83.38093123209168
Created 1 atoms
  using lattice units in orthogonal box = (68.195723 16.754678 72.061103) to (114.37642 59.982022 119.98048)
  create_atoms CPU = 0.000 seconds
create_atoms 1 single 96.83234 33.6573 83.45326842406877
Created 1 atoms
  using lattice units in orthogonal box = (68.195723 16.754678 72.061103) to (114.37642 59.982022 119.98048)
  create_atoms CPU = 0.000 seconds
create_atoms 1 single 96.14902000000001 35.3001 80.54824710601719
Created 1 atoms
  using lattice units in orthogonal box = (68.195723 16.754678 72.061103) to (114.37642 59.982022 119.98048)
  create_atoms CPU = 0.000 seconds
create_atoms 1 single 96.5585 36.5891 83.3154246418338
Created 1 atoms
  using lattice units in orthogonal box = (68.195723 16.754678 72.061103) to (114.37642 59.982022 119.98048)
  create_atoms CPU = 0.000 seconds
create_atoms 2 single 98.3262 37.8352 82.08031747851003
Created 1 atoms
  using lattice units in orthogonal box = (68.195723 16.754678 72.061103) to (114.37642 59.982022 119.98048)
  create_atoms CPU = 0.000 seconds
create_atoms 1 single 100.17458 37.0879 80.86894945558738
Created 1 atoms
  using lattice units in orthogonal box = (68.195723 16.754678 72.061103) to (114.37642 59.982022 119.98048)
  create_atoms CPU = 0.000 seconds
create_atoms 1 single 99.30908 35.224 83.06034085959884
Created 1 atoms
  using lattice units in orthogonal box = (68.195723 16.754678 72.061103) to (114.37642 59.982022 119.98048)
  create_atoms CPU = 0.000 seconds
create_atoms 1 single 100.89620000000001 37.682 84.67370659025788
Created 1 atoms
  using lattice units in orthogonal box = (68.195723 16.754678 72.061103) to (114.37642 59.982022 119.98048)
  create_atoms CPU = 0.000 seconds
create_atoms 1 single 101.319 33.8858 81.912911747851
Created 1 atoms
  using lattice units in orthogonal box = (68.195723 16.754678 72.061103) to (114.37642 59.982022 119.98048)
  create_atoms CPU = 0.000 seconds
create_atoms 2 single 102.57386 36.2935 83.1736616618911
Created 1 atoms
  using lattice units in orthogonal box = (68.195723 16.754678 72.061103) to (114.37642 59.982022 119.98048)
  create_atoms CPU = 0.000 seconds
create_atoms 1 single 71.1409 41.0096 84.52197765042979
Created 1 atoms
  using lattice units in orthogonal box = (68.195723 16.754678 72.061103) to (114.37642 59.982022 119.98048)
  create_atoms CPU = 0.000 seconds
create_atoms 1 single 72.88028 42.625 82.88509673352435
Created 1 atoms
  using lattice units in orthogonal box = (68.195723 16.754678 72.061103) to (114.37642 59.982022 119.98048)
  create_atoms CPU = 0.000 seconds
create_atoms 5 single 71.68858 39.9821 81.86162624641833
Created 1 atoms
  using lattice units in orthogonal box = (68.195723 16.754678 72.061103) to (114.37642 59.982022 119.98048)
  create_atoms CPU = 0.000 seconds
create_atoms 2 single 74.25888 38.9231 82.46574257879655
Created 1 atoms
  using lattice units in orthogonal box = (68.195723 16.754678 72.061103) to (114.37642 59.982022 119.98048)
  create_atoms CPU = 0.000 seconds
create_atoms 1 single 74.26812 41.1907 80.74364710601718
Created 1 atoms
  using lattice units in orthogonal box = (68.195723 16.754678 72.061103) to (114.37642 59.982022 119.98048)
  create_atoms CPU = 0.000 seconds
create_atoms 4 single 75.65082 41.3066 83.90420011461318
Created 1 atoms
  using lattice units in orthogonal box = (68.195723 16.754678 72.061103) to (114.37642 59.982022 119.98048)
  create_atoms CPU = 0.000 seconds
create_atoms 1 single 73.3646 38.8 84.97660458452721
Created 1 atoms
  using lattice units in orthogonal box = (68.195723 16.754678 72.061103) to (114.37642 59.982022 119.98048)
  create_atoms CPU = 0.000 seconds
create_atoms 3 single 76.35866 41.0826 79.63742555873925
Created 1 atoms
  using lattice units in orthogonal box = (68.195723 16.754678 72.061103) to (114.37642 59.982022 119.98048)
  create_atoms CPU = 0.000 seconds
create_atoms 2 single 77.17132 42.2039 82.15511816618911
Created 1 atoms
  using lattice units in orthogonal box = (68.195723 16.754678 72.061103) to (114.37642 59.982022 119.98048)
  create_atoms CPU = 0.000 seconds
create_atoms 1 single 79.43696 40.7561 81.63733616045845
Created 1 atoms
  using lattice units in orthogonal box = (68.195723 16.754678 72.061103) to (114.37642 59.982022 119.98048)
  create_atoms CPU = 0.000 seconds
create_atoms 1 single 76.81402 39.2145 81.88021444126073
Created 1 atoms
  using lattice units in orthogonal box = (68.195723 16.754678 72.061103) to (114.37642 59.982022 119.98048)
  create_atoms CPU = 0.000 seconds
create_atoms 5 single 81.1914 39.6525 84.7492911174785
Created 1 atoms
  using lattice units in orthogonal box = (68.195723 16.754678 72.061103) to (114.37642 59.982022 119.98048)
  create_atoms CPU = 0.000 seconds
create_atoms 4 single 78.43638 40.6155 84.62130131805156
Created 1 atoms
  using lattice units in orthogonal box = (68.195723 16.754678 72.061103) to (114.37642 59.982022 119.98048)
  create_atoms CPU = 0.000 seconds
create_atoms 4 single 80.10226 42.5956 84.05324160458451
Created 1 atoms
  using lattice units in orthogonal box = (68.195723 16.754678 72.061103) to (114.37642 59.982022 119.98048)
  create_atoms CPU = 0.000 seconds
create_atoms 2 single 82.31494 41.3286 83.37824378223495
Created 1 atoms
  using lattice units in orthogonal box = (68.195723 16.754678 72.061103) to (114.37642 59.982022 119.98048)
  create_atoms CPU = 0.000 seconds
create_atoms 2 single 81.57624 39.1731 81.11910624641833
Created 1 atoms
  using lattice units in orthogonal box = (68.195723 16.754678 72.061103) to (114.37642 59.982022 119.98048)
  create_atoms CPU = 0.000 seconds
create_atoms 4 single 84.3377 38.8988 80.64309169054441
Created 1 atoms
  using lattice units in orthogonal box = (68.195723 16.754678 72.061103) to (114.37642 59.982022 119.98048)
  create_atoms CPU = 0.000 seconds
create_atoms 1 single 82.52706 41.4257 80.52540378223496
Created 1 atoms
  using lattice units in orthogonal box = (68.195723 16.754678 72.061103) to (114.37642 59.982022 119.98048)
  create_atoms CPU = 0.000 seconds
create_atoms 3 single 83.80326000000001 43.175 82.67088458452722
Created 1 atoms
  using lattice units in orthogonal box = (68.195723 16.754678 72.061103) to (114.37642 59.982022 119.98048)
  create_atoms CPU = 0.000 seconds
create_atoms 1 single 85.6406 41.9581 81.14978796561604
Created 1 atoms
  using lattice units in orthogonal box = (68.195723 16.754678 72.061103) to (114.37642 59.982022 119.98048)
  create_atoms CPU = 0.000 seconds
create_atoms 1 single 84.81778 40.2049 83.40914945558738
Created 1 atoms
  using lattice units in orthogonal box = (68.195723 16.754678 72.061103) to (114.37642 59.982022 119.98048)
  create_atoms CPU = 0.000 seconds
create_atoms 3 single 86.2878 42.6567 83.93521776504296
Created 1 atoms
  using lattice units in orthogonal box = (68.195723 16.754678 72.061103) to (114.37642 59.982022 119.98048)
  create_atoms CPU = 0.000 seconds
create_atoms 4 single 88.60092 38.898 81.66745799426933
Created 1 atoms
  using lattice units in orthogonal box = (68.195723 16.754678 72.061103) to (114.37642 59.982022 119.98048)
  create_atoms CPU = 0.000 seconds
create_atoms 4 single 88.41402 41.5253 80.80691415472778
Created 1 atoms
  using lattice units in orthogonal box = (68.195723 16.754678 72.061103) to (114.37642 59.982022 119.98048)
  create_atoms CPU = 0.000 seconds
create_atoms 1 single 90.74066 38.8503 84.61256710601718
Created 1 atoms
  using lattice units in orthogonal box = (68.195723 16.754678 72.061103) to (114.37642 59.982022 119.98048)
  create_atoms CPU = 0.000 seconds
create_atoms 1 single 87.91524 40.5581 83.80991541547277
Created 1 atoms
  using lattice units in orthogonal box = (68.195723 16.754678 72.061103) to (114.37642 59.982022 119.98048)
  create_atoms CPU = 0.000 seconds
create_atoms 3 single 90.3392 41.5585 83.56177421203436
Created 1 atoms
  using lattice units in orthogonal box = (68.195723 16.754678 72.061103) to (114.37642 59.982022 119.98048)
  create_atoms CPU = 0.000 seconds
create_atoms 2 single 94.5124 38.4776 82.88039369627506
Created 1 atoms
  using lattice units in orthogonal box = (68.195723 16.754678 72.061103) to (114.37642 59.982022 119.98048)
  create_atoms CPU = 0.000 seconds
create_atoms 1 single 91.73062 39.9479 82.20830727793695
Created 1 atoms
  using lattice units in orthogonal box = (68.195723 16.754678 72.061103) to (114.37642 59.982022 119.98048)
  create_atoms CPU = 0.000 seconds
create_atoms 2 single 91.4755 41.6623 80.11903896848136
Created 1 atoms
  using lattice units in orthogonal box = (68.195723 16.754678 72.061103) to (114.37642 59.982022 119.98048)
  create_atoms CPU = 0.000 seconds
create_atoms 1 single 94.85646 41.1203 82.58914131805156
Created 1 atoms
  using lattice units in orthogonal box = (68.195723 16.754678 72.061103) to (114.37642 59.982022 119.98048)
  create_atoms CPU = 0.000 seconds
create_atoms 1 single 92.98192 42.6405 84.07328550143265
Created 1 atoms
  using lattice units in orthogonal box = (68.195723 16.754678 72.061103) to (114.37642 59.982022 119.98048)
  create_atoms CPU = 0.000 seconds
create_atoms 1 single 95.56158 38.5913 80.60748297994267
Created 1 atoms
  using lattice units in orthogonal box = (68.195723 16.754678 72.061103) to (114.37642 59.982022 119.98048)
  create_atoms CPU = 0.000 seconds
create_atoms 1 single 98.42045999999999 39.7139 79.81658888252147
Created 1 atoms
  using lattice units in orthogonal box = (68.195723 16.754678 72.061103) to (114.37642 59.982022 119.98048)
  create_atoms CPU = 0.000 seconds
create_atoms 1 single 99.90428 40.2776 83.00883140401146
Created 1 atoms
  using lattice units in orthogonal box = (68.195723 16.754678 72.061103) to (114.37642 59.982022 119.98048)
  create_atoms CPU = 0.000 seconds
create_atoms 3 single 97.02114 40.9215 81.40240825214899
Created 1 atoms
  using lattice units in orthogonal box = (68.195723 16.754678 72.061103) to (114.37642 59.982022 119.98048)
  create_atoms CPU = 0.000 seconds
create_atoms 1 single 99.26794 42.7653 81.20532859598853
Created 1 atoms
  using lattice units in orthogonal box = (68.195723 16.754678 72.061103) to (114.37642 59.982022 119.98048)
  create_atoms CPU = 0.000 seconds
create_atoms 1 single 97.5359 39.3547 84.05559312320916
Created 1 atoms
  using lattice units in orthogonal box = (68.195723 16.754678 72.061103) to (114.37642 59.982022 119.98048)
  create_atoms CPU = 0.000 seconds
create_atoms 1 single 98.21668000000001 42.5179 84.16275518624641
Created 1 atoms
  using lattice units in orthogonal box = (68.195723 16.754678 72.061103) to (114.37642 59.982022 119.98048)
  create_atoms CPU = 0.000 seconds
create_atoms 3 single 100.93378 42.6566 84.25793570200572
Created 1 atoms
  using lattice units in orthogonal box = (68.195723 16.754678 72.061103) to (114.37642 59.982022 119.98048)
  create_atoms CPU = 0.000 seconds
create_atoms 2 single 102.28386 41.8831 82.7078370200573
Created 1 atoms
  using lattice units in orthogonal box = (68.195723 16.754678 72.061103) to (114.37642 59.982022 119.98048)
  create_atoms CPU = 0.000 seconds
create_atoms 1 single 102.42592 39.0005 82.74523736389685
Created 1 atoms
  using lattice units in orthogonal box = (68.195723 16.754678 72.061103) to (114.37642 59.982022 119.98048)
  create_atoms CPU = 0.000 seconds
create_atoms 1 single 75.62376 46.6588 79.81378945558738
Created 1 atoms
  using lattice units in orthogonal box = (68.195723 16.754678 72.061103) to (114.37642 59.982022 119.98048)
  create_atoms CPU = 0.000 seconds
create_atoms 4 single 72.32598 43.353 79.72398383954155
Created 1 atoms
  using lattice units in orthogonal box = (68.195723 16.754678 72.061103) to (114.37642 59.982022 119.98048)
  create_atoms CPU = 0.000 seconds
create_atoms 2 single 73.25136 45.8356 80.44310063037248
Created 1 atoms
  using lattice units in orthogonal box = (68.195723 16.754678 72.061103) to (114.37642 59.982022 119.98048)
  create_atoms CPU = 0.000 seconds
create_atoms 1 single 75.42328 44.3004 82.39687667621774
Created 1 atoms
  using lattice units in orthogonal box = (68.195723 16.754678 72.061103) to (114.37642 59.982022 119.98048)
  create_atoms CPU = 0.000 seconds
create_atoms 1 single 74.69186 47.9439 82.3483906017192
Created 1 atoms
  using lattice units in orthogonal box = (68.195723 16.754678 72.061103) to (114.37642 59.982022 119.98048)
  create_atoms CPU = 0.000 seconds
create_atoms 1 single 73.22608000000001 45.644 83.43658383954154
Created 1 atoms
  using lattice units in orthogonal box = (68.195723 16.754678 72.061103) to (114.37642 59.982022 119.98048)
  create_atoms CPU = 0.000 seconds
create_atoms 2 single 80.50102 45.9814 79.9166963896848
Created 1 atoms
  using lattice units in orthogonal box = (68.195723 16.754678 72.061103) to (114.37642 59.982022 119.98048)
  create_atoms CPU = 0.000 seconds
create_atoms 4 single 78.11304 44.5104 81.59948790830944
Created 1 atoms
  using lattice units in orthogonal box = (68.195723 16.754678 72.061103) to (114.37642 59.982022 119.98048)
  create_atoms CPU = 0.000 seconds
create_atoms 1 single 80.92066000000001 43.515 81.41170234957019
Created 1 atoms
  using lattice units in orthogonal box = (68.195723 16.754678 72.061103) to (114.37642 59.982022 119.98048)
  create_atoms CPU = 0.000 seconds
create_atoms 2 single 78.3982 47.6133 80.36650830945558
Created 1 atoms
  using lattice units in orthogonal box = (68.195723 16.754678 72.061103) to (114.37642 59.982022 119.98048)
  create_atoms CPU = 0.000 seconds
create_atoms 4 single 77.5354 46.6746 82.8356028653295
Created 1 atoms
  using lattice units in orthogonal box = (68.195723 16.754678 72.061103) to (114.37642 59.982022 119.98048)
  create_atoms CPU = 0.000 seconds
create_atoms 4 single 80.25062000000001 46.2135 82.41938406876791
Created 1 atoms
  using lattice units in orthogonal box = (68.195723 16.754678 72.061103) to (114.37642 59.982022 119.98048)
  create_atoms CPU = 0.000 seconds
create_atoms 1 single 82.32542000000001 44.5059 84.55086773638968
Created 1 atoms
  using lattice units in orthogonal box = (68.195723 16.754678 72.061103) to (114.37642 59.982022 119.98048)
  create_atoms CPU = 0.000 seconds
create_atoms 2 single 85.1864 46.2748 79.66161260744985
Created 1 atoms
  using lattice units in orthogonal box = (68.195723 16.754678 72.061103) to (114.37642 59.982022 119.98048)
  create_atoms CPU = 0.000 seconds
create_atoms 2 single 85.67576000000001 44.7489 82.04661237822349
Created 1 atoms
  using lattice units in orthogonal box = (68.195723 16.754678 72.061103) to (114.37642 59.982022 119.98048)
  create_atoms CPU = 0.000 seconds
create_atoms 5 single 83.11378 45.71 81.9987981661891
Created 1 atoms
  using lattice units in orthogonal box = (68.195723 16.754678 72.061103) to (114.37642 59.982022 119.98048)
  create_atoms CPU = 0.000 seconds
create_atoms 1 single 83.11212 47.4973 84.41985455587391
Created 1 atoms
  using lattice units in orthogonal box = (68.195723 16.754678 72.061103) to (114.37642 59.982022 119.98048)
  create_atoms CPU = 0.000 seconds
create_atoms 1 single 85.94258 47.2321 83.48921306590258
Created 1 atoms
  using lattice units in orthogonal box = (68.195723 16.754678 72.061103) to (114.37642 59.982022 119.98048)
  create_atoms CPU = 0.000 seconds
create_atoms 1 single 83.41572 47.8484 80.20335770773637
Created 1 atoms
  using lattice units in orthogonal box = (68.195723 16.754678 72.061103) to (114.37642 59.982022 119.98048)
  create_atoms CPU = 0.000 seconds
create_atoms 4 single 85.4332 44.8632 84.83775300859597
Created 1 atoms
  using lattice units in orthogonal box = (68.195723 16.754678 72.061103) to (114.37642 59.982022 119.98048)
  create_atoms CPU = 0.000 seconds
create_atoms 1 single 88.36036 43.6332 83.06056481375357
Created 1 atoms
  using lattice units in orthogonal box = (68.195723 16.754678 72.061103) to (114.37642 59.982022 119.98048)
  create_atoms CPU = 0.000 seconds
create_atoms 1 single 90.53892 43.7588 81.51292962750716
Created 1 atoms
  using lattice units in orthogonal box = (68.195723 16.754678 72.061103) to (114.37642 59.982022 119.98048)
  create_atoms CPU = 0.000 seconds
create_atoms 1 single 87.80272000000001 46.4619 81.68481444126074
Created 1 atoms
  using lattice units in orthogonal box = (68.195723 16.754678 72.061103) to (114.37642 59.982022 119.98048)
  create_atoms CPU = 0.000 seconds
create_atoms 1 single 90.48724 47.2915 81.19525065902577
Created 1 atoms
  using lattice units in orthogonal box = (68.195723 16.754678 72.061103) to (114.37642 59.982022 119.98048)
  create_atoms CPU = 0.000 seconds
create_atoms 1 single 90.80398 45.7655 83.94887896848137
Created 1 atoms
  using lattice units in orthogonal box = (68.195723 16.754678 72.061103) to (114.37642 59.982022 119.98048)
  create_atoms CPU = 0.000 seconds
create_atoms 3 single 89.02364 47.5653 84.45770280802292
Created 1 atoms
  using lattice units in orthogonal box = (68.195723 16.754678 72.061103) to (114.37642 59.982022 119.98048)
  create_atoms CPU = 0.000 seconds
create_atoms 1 single 93.33672 43.6428 81.07733879656159
Created 1 atoms
  using lattice units in orthogonal box = (68.195723 16.754678 72.061103) to (114.37642 59.982022 119.98048)
  create_atoms CPU = 0.000 seconds
create_atoms 2 single 95.46566 43.9345 83.9205487679083
Created 1 atoms
  using lattice units in orthogonal box = (68.195723 16.754678 72.061103) to (114.37642 59.982022 119.98048)
  create_atoms CPU = 0.000 seconds
create_atoms 3 single 91.49616 45.6364 79.73876481375358
Created 1 atoms
  using lattice units in orthogonal box = (68.195723 16.754678 72.061103) to (114.37642 59.982022 119.98048)
  create_atoms CPU = 0.000 seconds
create_atoms 1 single 94.54636 46.0682 80.16259805157591
Created 1 atoms
  using lattice units in orthogonal box = (68.195723 16.754678 72.061103) to (114.37642 59.982022 119.98048)
  create_atoms CPU = 0.000 seconds
create_atoms 2 single 94.82388 48.0012 82.42207151862463
Created 1 atoms
  using lattice units in orthogonal box = (68.195723 16.754678 72.061103) to (114.37642 59.982022 119.98048)
  create_atoms CPU = 0.000 seconds
create_atoms 1 single 93.33444 45.9408 82.95888962750716
Created 1 atoms
  using lattice units in orthogonal box = (68.195723 16.754678 72.061103) to (114.37642 59.982022 119.98048)
  create_atoms CPU = 0.000 seconds
create_atoms 2 single 96.27716 45.9422 83.08631954154727
Created 1 atoms
  using lattice units in orthogonal box = (68.195723 16.754678 72.061103) to (114.37642 59.982022 119.98048)
  create_atoms CPU = 0.000 seconds
create_atoms 1 single 96.2385 43.4905 81.2091358166189
Created 1 atoms
  using lattice units in orthogonal box = (68.195723 16.754678 72.061103) to (114.37642 59.982022 119.98048)
  create_atoms CPU = 0.000 seconds
create_atoms 1 single 98.771 45.2538 82.76337765042979
Created 1 atoms
  using lattice units in orthogonal box = (68.195723 16.754678 72.061103) to (114.37642 59.982022 119.98048)
  create_atoms CPU = 0.000 seconds
create_atoms 1 single 97.20374 47.738 81.36209650429798
Created 1 atoms
  using lattice units in orthogonal box = (68.195723 16.754678 72.061103) to (114.37642 59.982022 119.98048)
  create_atoms CPU = 0.000 seconds
create_atoms 1 single 100.77676 47.5014 84.2883934670487
Created 1 atoms
  using lattice units in orthogonal box = (68.195723 16.754678 72.061103) to (114.37642 59.982022 119.98048)
  create_atoms CPU = 0.000 seconds
create_atoms 1 single 101.8353 44.8487 83.27735243553008
Created 1 atoms
  using lattice units in orthogonal box = (68.195723 16.754678 72.061103) to (114.37642 59.982022 119.98048)
  create_atoms CPU = 0.000 seconds
create_atoms 3 single 75.47394 49.6836 84.67773776504296
Created 1 atoms
  using lattice units in orthogonal box = (68.195723 16.754678 72.061103) to (114.37642 59.982022 119.98048)
  create_atoms CPU = 0.000 seconds
create_atoms 4 single 76.68432 51.6698 83.32415885386818
Created 1 atoms
  using lattice units in orthogonal box = (68.195723 16.754678 72.061103) to (114.37642 59.982022 119.98048)
  create_atoms CPU = 0.000 seconds
create_atoms 1 single 78.78642 50.2338 79.69498177650429
Created 1 atoms
  using lattice units in orthogonal box = (68.195723 16.754678 72.061103) to (114.37642 59.982022 119.98048)
  create_atoms CPU = 0.000 seconds
create_atoms 2 single 79.79336 48.8866 83.21677283667621
Created 1 atoms
  using lattice units in orthogonal box = (68.195723 16.754678 72.061103) to (114.37642 59.982022 119.98048)
  create_atoms CPU = 0.000 seconds
create_atoms 1 single 76.89564 49.4007 81.40128848137535
Created 1 atoms
  using lattice units in orthogonal box = (68.195723 16.754678 72.061103) to (114.37642 59.982022 119.98048)
  create_atoms CPU = 0.000 seconds
create_atoms 1 single 79.28664 51.6468 82.54961340974212
Created 1 atoms
  using lattice units in orthogonal box = (68.195723 16.754678 72.061103) to (114.37642 59.982022 119.98048)
  create_atoms CPU = 0.000 seconds
create_atoms 1 single 78.08696 49.0251 84.82252412607448
Created 1 atoms
  using lattice units in orthogonal box = (68.195723 16.754678 72.061103) to (114.37642 59.982022 119.98048)
  create_atoms CPU = 0.000 seconds
create_atoms 1 single 82.24432 50.3793 84.36834510028653
Created 1 atoms
  using lattice units in orthogonal box = (68.195723 16.754678 72.061103) to (114.37642 59.982022 119.98048)
  create_atoms CPU = 0.000 seconds
create_atoms 1 single 81.23904 48.578 81.38057272206304
Created 1 atoms
  using lattice units in orthogonal box = (68.195723 16.754678 72.061103) to (114.37642 59.982022 119.98048)
  create_atoms CPU = 0.000 seconds
create_atoms 1 single 81.70678000000001 51.7656 81.31573799426934
Created 1 atoms
  using lattice units in orthogonal box = (68.195723 16.754678 72.061103) to (114.37642 59.982022 119.98048)
  create_atoms CPU = 0.000 seconds
create_atoms 1 single 84.2193 51.1033 79.97010945558739
Created 1 atoms
  using lattice units in orthogonal box = (68.195723 16.754678 72.061103) to (114.37642 59.982022 119.98048)
  create_atoms CPU = 0.000 seconds
create_atoms 1 single 84.2593 49.911 82.74210200573064
Created 1 atoms
  using lattice units in orthogonal box = (68.195723 16.754678 72.061103) to (114.37642 59.982022 119.98048)
  create_atoms CPU = 0.000 seconds
create_atoms 3 single 84.11458 53.0581 83.06314028653296
Created 1 atoms
  using lattice units in orthogonal box = (68.195723 16.754678 72.061103) to (114.37642 59.982022 119.98048)
  create_atoms CPU = 0.000 seconds
create_atoms 2 single 86.1496 51.9529 82.64356217765042
Created 1 atoms
  using lattice units in orthogonal box = (68.195723 16.754678 72.061103) to (114.37642 59.982022 119.98048)
  create_atoms CPU = 0.000 seconds
create_atoms 2 single 86.36382 48.9744 81.55100183381087
Created 1 atoms
  using lattice units in orthogonal box = (68.195723 16.754678 72.061103) to (114.37642 59.982022 119.98048)
  create_atoms CPU = 0.000 seconds
create_atoms 2 single 87.92986 48.6181 79.98063530085959
Created 1 atoms
  using lattice units in orthogonal box = (68.195723 16.754678 72.061103) to (114.37642 59.982022 119.98048)
  create_atoms CPU = 0.000 seconds
create_atoms 1 single 87.6557 51.1766 80.95214842406875
Created 1 atoms
  using lattice units in orthogonal box = (68.195723 16.754678 72.061103) to (114.37642 59.982022 119.98048)
  create_atoms CPU = 0.000 seconds
create_atoms 1 single 89.88212 49.3802 83.07109065902578
Created 1 atoms
  using lattice units in orthogonal box = (68.195723 16.754678 72.061103) to (114.37642 59.982022 119.98048)
  create_atoms CPU = 0.000 seconds
create_atoms 1 single 90.23638 50.1837 80.16405375358164
Created 1 atoms
  using lattice units in orthogonal box = (68.195723 16.754678 72.061103) to (114.37642 59.982022 119.98048)
  create_atoms CPU = 0.000 seconds
create_atoms 3 single 91.29574 51.9073 82.55017329512894
Created 1 atoms
  using lattice units in orthogonal box = (68.195723 16.754678 72.061103) to (114.37642 59.982022 119.98048)
  create_atoms CPU = 0.000 seconds
create_atoms 1 single 87.55272000000001 50.0215 84.51615484240686
Created 1 atoms
  using lattice units in orthogonal box = (68.195723 16.754678 72.061103) to (114.37642 59.982022 119.98048)
  create_atoms CPU = 0.000 seconds
create_atoms 1 single 89.63694 52.1587 84.25782372492836
Created 1 atoms
  using lattice units in orthogonal box = (68.195723 16.754678 72.061103) to (114.37642 59.982022 119.98048)
  create_atoms CPU = 0.000 seconds
create_atoms 1 single 92.52696 48.3001 79.79643300859597
Created 1 atoms
  using lattice units in orthogonal box = (68.195723 16.754678 72.061103) to (114.37642 59.982022 119.98048)
  create_atoms CPU = 0.000 seconds
create_atoms 1 single 93.39748 50.7228 81.76196664756446
Created 1 atoms
  using lattice units in orthogonal box = (68.195723 16.754678 72.061103) to (114.37642 59.982022 119.98048)
  create_atoms CPU = 0.000 seconds
create_atoms 2 single 92.65982 48.6452 83.19706487106016
Created 1 atoms
  using lattice units in orthogonal box = (68.195723 16.754678 72.061103) to (114.37642 59.982022 119.98048)
  create_atoms CPU = 0.000 seconds
create_atoms 1 single 94.65528 52.6065 84.29768756446991
Created 1 atoms
  using lattice units in orthogonal box = (68.195723 16.754678 72.061103) to (114.37642 59.982022 119.98048)
  create_atoms CPU = 0.000 seconds
create_atoms 1 single 95.38974 49.7156 84.7331664183381
Created 1 atoms
  using lattice units in orthogonal box = (68.195723 16.754678 72.061103) to (114.37642 59.982022 119.98048)
  create_atoms CPU = 0.000 seconds
create_atoms 2 single 97.40264 51.5285 84.42634922636103
Created 1 atoms
  using lattice units in orthogonal box = (68.195723 16.754678 72.061103) to (114.37642 59.982022 119.98048)
  create_atoms CPU = 0.000 seconds
create_atoms 3 single 96.16568000000001 50.0082 82.19195862464183
Created 1 atoms
  using lattice units in orthogonal box = (68.195723 16.754678 72.061103) to (114.37642 59.982022 119.98048)
  create_atoms CPU = 0.000 seconds
create_atoms 1 single 97.96418000000001 48.3009 84.55187553008595
Created 1 atoms
  using lattice units in orthogonal box = (68.195723 16.754678 72.061103) to (114.37642 59.982022 119.98048)
  create_atoms CPU = 0.000 seconds
create_atoms 3 single 79.30080000000001 53.8008 84.5796458452722
Created 1 atoms
  using lattice units in orthogonal box = (68.195723 16.754678 72.061103) to (114.37642 59.982022 119.98048)
  create_atoms CPU = 0.000 seconds
create_atoms 1 single 82.08036 53.3953 84.40205020057306
Created 1 atoms
  using lattice units in orthogonal box = (68.195723 16.754678 72.061103) to (114.37642 59.982022 119.98048)
  create_atoms CPU = 0.000 seconds
create_atoms 1 single 87.35086 53.7632 84.77045478510028
Created 1 atoms
  using lattice units in orthogonal box = (68.195723 16.754678 72.061103) to (114.37642 59.982022 119.98048)
  create_atoms CPU = 0.000 seconds
create_atoms 1 single 80.27136 22.9583 90.31332011461318
Created 1 atoms
  using lattice units in orthogonal box = (68.195723 16.754678 72.061103) to (114.37642 59.982022 119.98048)
  create_atoms CPU = 0.000 seconds
create_atoms 1 single 81.95756 22.0105 87.79887484240686
Created 1 atoms
  using lattice units in orthogonal box = (68.195723 16.754678 72.061103) to (114.37642 59.982022 119.98048)
  create_atoms CPU = 0.000 seconds
create_atoms 5 single 84.19384000000001 20.2186 89.82924320916905
Created 1 atoms
  using lattice units in orthogonal box = (68.195723 16.754678 72.061103) to (114.37642 59.982022 119.98048)
  create_atoms CPU = 0.000 seconds
create_atoms 1 single 83.5537 22.7206 85.83602865329512
Created 1 atoms
  using lattice units in orthogonal box = (68.195723 16.754678 72.061103) to (114.37642 59.982022 119.98048)
  create_atoms CPU = 0.000 seconds
create_atoms 3 single 84.86408 22.4964 88.85179530085959
Created 1 atoms
  using lattice units in orthogonal box = (68.195723 16.754678 72.061103) to (114.37642 59.982022 119.98048)
  create_atoms CPU = 0.000 seconds
create_atoms 1 single 86.795 22.0881 87.13552263610315
Created 1 atoms
  using lattice units in orthogonal box = (68.195723 16.754678 72.061103) to (114.37642 59.982022 119.98048)
  create_atoms CPU = 0.000 seconds
create_atoms 3 single 87.33508 23.2419 89.72185719197708
Created 1 atoms
  using lattice units in orthogonal box = (68.195723 16.754678 72.061103) to (114.37642 59.982022 119.98048)
  create_atoms CPU = 0.000 seconds
create_atoms 1 single 87.11110000000001 20.6711 90.08667851002863
Created 1 atoms
  using lattice units in orthogonal box = (68.195723 16.754678 72.061103) to (114.37642 59.982022 119.98048)
  create_atoms CPU = 0.000 seconds
create_atoms 1 single 89.8494 19.9973 89.60517707736389
Created 1 atoms
  using lattice units in orthogonal box = (68.195723 16.754678 72.061103) to (114.37642 59.982022 119.98048)
  create_atoms CPU = 0.000 seconds
create_atoms 2 single 89.47586 21.891 86.7938805730659
Created 1 atoms
  using lattice units in orthogonal box = (68.195723 16.754678 72.061103) to (114.37642 59.982022 119.98048)
  create_atoms CPU = 0.000 seconds
create_atoms 1 single 92.37454 21.4044 89.11314979942692
Created 1 atoms
  using lattice units in orthogonal box = (68.195723 16.754678 72.061103) to (114.37642 59.982022 119.98048)
  create_atoms CPU = 0.000 seconds
create_atoms 1 single 89.95414 22.8857 89.6528793123209
Created 1 atoms
  using lattice units in orthogonal box = (68.195723 16.754678 72.061103) to (114.37642 59.982022 119.98048)
  create_atoms CPU = 0.000 seconds
create_atoms 2 single 92.8923 22.7563 85.04659025787966
Created 1 atoms
  using lattice units in orthogonal box = (68.195723 16.754678 72.061103) to (114.37642 59.982022 119.98048)
  create_atoms CPU = 0.000 seconds
create_atoms 3 single 94.73172 19.695 89.88713535816619
Created 1 atoms
  using lattice units in orthogonal box = (68.195723 16.754678 72.061103) to (114.37642 59.982022 119.98048)
  create_atoms CPU = 0.000 seconds
create_atoms 1 single 94.82784 21.7182 87.93515094555873
Created 1 atoms
  using lattice units in orthogonal box = (68.195723 16.754678 72.061103) to (114.37642 59.982022 119.98048)
  create_atoms CPU = 0.000 seconds
create_atoms 1 single 96.26608 23.2778 85.63413398280801
Created 1 atoms
  using lattice units in orthogonal box = (68.195723 16.754678 72.061103) to (114.37642 59.982022 119.98048)
  create_atoms CPU = 0.000 seconds
create_atoms 5 single 96.71972 23.2256 90.35072045845271
Created 1 atoms
  using lattice units in orthogonal box = (68.195723 16.754678 72.061103) to (114.37642 59.982022 119.98048)
  create_atoms CPU = 0.000 seconds
create_atoms 1 single 98.15526000000001 22.0763 88.48921352435529
Created 1 atoms
  using lattice units in orthogonal box = (68.195723 16.754678 72.061103) to (114.37642 59.982022 119.98048)
  create_atoms CPU = 0.000 seconds
create_atoms 1 single 77.13218 24.9875 85.85248928366762
Created 1 atoms
  using lattice units in orthogonal box = (68.195723 16.754678 72.061103) to (114.37642 59.982022 119.98048)
  create_atoms CPU = 0.000 seconds
create_atoms 1 single 73.90598 28.2806 87.34626349570199
Created 1 atoms
  using lattice units in orthogonal box = (68.195723 16.754678 72.061103) to (114.37642 59.982022 119.98048)
  create_atoms CPU = 0.000 seconds
create_atoms 3 single 75.99672 27.4364 86.24620068767908
Created 1 atoms
  using lattice units in orthogonal box = (68.195723 16.754678 72.061103) to (114.37642 59.982022 119.98048)
  create_atoms CPU = 0.000 seconds
create_atoms 3 single 76.57224000000001 27.9242 89.30127128939827
Created 1 atoms
  using lattice units in orthogonal box = (68.195723 16.754678 72.061103) to (114.37642 59.982022 119.98048)
  create_atoms CPU = 0.000 seconds
create_atoms 2 single 78.49736 25.1478 89.00766739255013
Created 1 atoms
  using lattice units in orthogonal box = (68.195723 16.754678 72.061103) to (114.37642 59.982022 119.98048)
  create_atoms CPU = 0.000 seconds
create_atoms 1 single 78.71588 27.7161 88.053398739255
Created 1 atoms
  using lattice units in orthogonal box = (68.195723 16.754678 72.061103) to (114.37642 59.982022 119.98048)
  create_atoms CPU = 0.000 seconds
create_atoms 1 single 75.67304 25.5586 87.99281914040114
Created 1 atoms
  using lattice units in orthogonal box = (68.195723 16.754678 72.061103) to (114.37642 59.982022 119.98048)
  create_atoms CPU = 0.000 seconds
create_atoms 1 single 79.31008 26.6962 85.2864451575931
Created 1 atoms
  using lattice units in orthogonal box = (68.195723 16.754678 72.061103) to (114.37642 59.982022 119.98048)
  create_atoms CPU = 0.000 seconds
create_atoms 1 single 80.21516 24.4049 87.56204332378222
Created 1 atoms
  using lattice units in orthogonal box = (68.195723 16.754678 72.061103) to (114.37642 59.982022 119.98048)
  create_atoms CPU = 0.000 seconds
create_atoms 2 single 82.607 25.1159 86.79399255014324
Created 1 atoms
  using lattice units in orthogonal box = (68.195723 16.754678 72.061103) to (114.37642 59.982022 119.98048)
  create_atoms CPU = 0.000 seconds
create_atoms 1 single 83.37270000000001 24.3133 89.77034326647563
Created 1 atoms
  using lattice units in orthogonal box = (68.195723 16.754678 72.061103) to (114.37642 59.982022 119.98048)
  create_atoms CPU = 0.000 seconds
create_atoms 1 single 81.78641999999999 27.061 88.3620075644699
Created 1 atoms
  using lattice units in orthogonal box = (68.195723 16.754678 72.061103) to (114.37642 59.982022 119.98048)
  create_atoms CPU = 0.000 seconds
create_atoms 1 single 82.21602 27.5635 85.36214166189112
Created 1 atoms
  using lattice units in orthogonal box = (68.195723 16.754678 72.061103) to (114.37642 59.982022 119.98048)
  create_atoms CPU = 0.000 seconds
create_atoms 2 single 81.1316 25.7353 90.38285787965616
Created 1 atoms
  using lattice units in orthogonal box = (68.195723 16.754678 72.061103) to (114.37642 59.982022 119.98048)
  create_atoms CPU = 0.000 seconds
create_atoms 1 single 85.516 24.8861 87.79562750716332
Created 1 atoms
  using lattice units in orthogonal box = (68.195723 16.754678 72.061103) to (114.37642 59.982022 119.98048)
  create_atoms CPU = 0.000 seconds
create_atoms 1 single 84.97008000000001 27.28 89.44527381088825
Created 1 atoms
  using lattice units in orthogonal box = (68.195723 16.754678 72.061103) to (114.37642 59.982022 119.98048)
  create_atoms CPU = 0.000 seconds
create_atoms 4 single 85.10106 26.8071 85.43335908309454
Created 1 atoms
  using lattice units in orthogonal box = (68.195723 16.754678 72.061103) to (114.37642 59.982022 119.98048)
  create_atoms CPU = 0.000 seconds
[...]
  create_atoms CPU = 0.000 seconds
create_atoms 1 single 108.4328 44.3799 113.01062578796561
Created 1 atoms
  using lattice units in orthogonal box = (68.195723 16.754678 72.061103) to (114.37642 59.982022 119.98048)
  create_atoms CPU = 0.000 seconds
create_atoms 1 single 96.648 48.5367 114.13935472779369
Created 1 atoms
  using lattice units in orthogonal box = (68.195723 16.754678 72.061103) to (114.37642 59.982022 119.98048)
  create_atoms CPU = 0.000 seconds
create_atoms 1 single 101.5605 49.2028 112.87513352435529
Created 1 atoms
  using lattice units in orthogonal box = (68.195723 16.754678 72.061103) to (114.37642 59.982022 119.98048)
  create_atoms CPU = 0.000 seconds
group surface id  1 2 3 4 5 6 7 8 9 10 11 12 13 14 15 16 19 20 21 22 23 24 25 26 31 33 34 35 38 40 42 44 46 47 48 49 50 51 52 53 57 58 60 66 67 69 72 74 75 78 79 80 81 82 83 84 85 87 88 91 93 94 95 97 99 100 101 102 103 104 105 106 107 108 109 110 111 112 113 115 116 118 119 121 126 127 129 130 131 132 133 134 136 137 158 162 164 165 167 170 171 172 173 174 175 176 179 210 213 214 215 216 217 248 251 255 256 257 258 259 261 262 266 286 291 292 293 294 295 296 297 299 300 304 305 307 308 310 311 313 314 316 317 318 320 322 323 324 325 326 327 328 329 330 331 332 333 335 336 337 338 340 341 342 343 345 346 347 348 350 352 354 381 382 383 384 387 388 389 390 431 432 433 435 436 437 483 484 485 487 488 489 491 529 530 531 532 533 534 538 539 541 576 577 578 581 583 584 585 586 615 616 618 619 620 621 622 623 625 626 629 630 632 633 634 635 636 637 638 639 640 641 643 644 645 649 651 652 654 657 660 661 663 664 665 666 667 668 671 673 702 707 708 709 710 711 712 713 762 763 766 767 769 771 813 816 817 818 820 864 865 868 871 875 876 877 878 922 923 924 925 926 927 929 930 962 963 964 965 966 967 968 970 971 973 976 977 979 981 983 987 988 989 990 991 992 993 994 995 996 997 1001 1002 1004 1006 1007 1008 1012 1013 1014 1016 1017 1019 1020 1021 1022 1023 1057 1058 1063 1064 1065 1067 1068 1108 1109 1111 1112 1114 1115 1117 1120 1165 1169 1170 1171 1172 1175 1217 1218 1221 1223 1224 1227 1270 1271 1273 1275 1276 1277 1280 1282 1316 1317 1318 1319 1320 1321 1322 1323 1325 1326 1331 1332 1333 1334 1335 1337 1340 1342 1343 1344 1345 1346 1347 1348 1349 1350 1351 1352 1353 1354 1357 1358 1359 1360 1362 1363 1364 1365 1366 1367 1368 1369 1370 1399 1400 1401 1404 1405 1406 1407 1408 1411 1452 1454 1455 1457 1458 1459 1460 1499 1500 1504 1505 1506 1507 1508 1510 1511 1512 1553 1555 1556 1557 1558 1560 1561 1562 1567 1568 1604 1605 1606 1607 1608 1609 1610 1612 1615 1637 1640 1641 1642 1643 1644 1645 1647 1648 1649 1650 1651 1652 1653 1654 1655 1656 1657 1658 1659 1660 1661 1662 1663 1664 1665 1667 1669 1670 1672 1673 1676 1682 1684 1685 1686 1687 1688 1690 1691 1692 1693 1694 1695 1696 1699 1720 1726 1727 1728 1729 1730 1731 1733 1766 1770 1771 1772 1773 1774 1775 1778 1811 1812 1813 1814 1815 1816 1817 1818 1819 1823 1825 1826 1846 1851 1852 1853 1854 1855 1857 1858 1860 1862 1863 1864 1865 1868 1869 1870 1871 1872 1873 1874 1875 1876 1877 1878 1879 1880 1881 1882 1883 1884 1885 1886 1887 1888 1891 1892 1893 1894 1897 1898 1899 1900 1901 1902 1903 1904 1906 1908 1911 1914 1915 1916 1917 1923 1924 1925 1928 1929 1930 1932 1933 1934 1935 1936 1937 1939 1940 1941 1946 1948 1949 1954 1956 1958 1961 1962 1964 1965 1966 1967 1970 1971 1972 1973 1974 1976 1978 1979 1980 1981 1982 1983 1984 1985 
618 atoms in group surface
            fix freeze surface setforce 0 0 0 
            minimize 0 1e-4 100000 100000
Neighbor list info ...
  update: every = 1 steps, delay = 0 steps, check = yes
  max neighbors/atom: 2000, page size: 100000
  master list distance cutoff = 9.1553683
  ghost atom cutoff = 9.1553683
  binsize = 4.5776842, bins = 11 10 11
  1 neighbor lists, perpetual/occasional/extra = 1 0 0
  (1) pair eam/alloy, perpetual
      attributes: half, newton on
      pair build: half/bin/atomonly/newton
      stencil: half/bin/3d
      bin: standard
Per MPI rank memory allocation (min/avg/max) = 4.075 | 4.363 | 4.467 Mbytes
   Step          Temp          E_pair         E_mol          TotEng         Press          Volume    
         0   0             -9975.3428      0             -9975.3428     -21730.277      72670.609    
       431   0             -10324.115      0             -10324.115     -40773.502      72670.609    
Loop time of 0.11756 on 192 procs for 431 steps with 1985 atoms

99.8% CPU use with 192 MPI tasks x 1 OpenMP threads

Minimization stats:
  Stopping criterion = linesearch alpha is zero
  Energy initial, next-to-last, final = 
     -9975.34284338787   -10324.114824786   -10324.114824786
  Force two-norm initial, final = 44.68073 0.024481328
  Force max component initial, final = 3.030881 0.0066268533
  Final line search alpha, max atom move = 1.5258789e-05 1.0111776e-07
  Iterations, force evaluations = 431 784

MPI task timing breakdown:
Section |  min time  |  avg time  |  max time  |%varavg| %total
---------------------------------------------------------------
Pair    | 0.035605   | 0.048952   | 0.068863   |   4.4 | 41.64
Neigh   | 1.5871e-05 | 0.0003456  | 0.00094719 |   0.0 |  0.29
Comm    | 0.0063904  | 0.040032   | 0.056743   |   5.1 | 34.05
Output  | 0          | 0          | 0          |   0.0 |  0.00
Modify  | 3.6284e-05 | 5.7312e-05 | 0.00010535 |   0.0 |  0.05
Other   |            | 0.02817    |            |       | 23.96

Nlocal:        10.3385 ave          24 max           0 min
Histogram: 51 16 16 6 8 15 18 34 19 9
Nghost:        341.573 ave         790 max          28 min
Histogram: 16 24 29 34 30 23 10 11 3 12
Neighs:        632.661 ave        1835 max           0 min
Histogram: 70 14 17 15 10 12 13 21 14 6

Total # of neighbors = 121471
Ave neighs/atom = 61.194458
Neighbor list builds = 20
Dangerous builds = 0
            unfix freeze
            compute force all property/atom fx fy fz
            dump fcal all custom 1 dump.force id type x y z fx fy fz
            run 1 
WARNING: No fixes with time integration, atoms won't move (src/verlet.cpp:60)
Per MPI rank memory allocation (min/avg/max) = 2.95 | 3.238 | 3.342 Mbytes
   Step          Temp          E_pair         E_mol          TotEng         Press          Volume    
       431   0             -10324.115      0             -10324.115     -40773.502      72670.609    
       432   0             -10324.115      0             -10324.115     -40773.502      72670.609    
Loop time of 0.00120198 on 192 procs for 1 steps with 1985 atoms

Performance: 71.882 ns/day, 0.334 hours/ns, 831.962 timesteps/s, 1.651 Matom-step/s
99.8% CPU use with 192 MPI tasks x 1 OpenMP threads

MPI task timing breakdown:
Section |  min time  |  avg time  |  max time  |%varavg| %total
---------------------------------------------------------------
Pair    | 5.5572e-05 | 7.7783e-05 | 0.00011964 |   0.0 |  6.47
Neigh   | 0          | 0          | 0          |   0.0 |  0.00
Comm    | 1.1887e-05 | 6.1813e-05 | 9.611e-05  |   0.0 |  5.14
Output  | 0.0001227  | 0.00054751 | 0.0010826  |   0.0 | 45.55
Modify  | 1.3399e-07 | 2.8002e-07 | 7.07e-07   |   0.0 |  0.02
Other   |            | 0.0005146  |            |       | 42.81

Nlocal:        10.3385 ave          24 max           0 min
Histogram: 51 16 16 6 8 17 17 34 17 10
Nghost:        341.318 ave         787 max          28 min
Histogram: 15 22 32 33 31 23 10 10 4 12
Neighs:        632.776 ave        1834 max           0 min
Histogram: 70 14 16 16 11 11 12 22 13 7

Total # of neighbors = 121493
Ave neighs/atom = 61.205542
Neighbor list builds = 0
Dangerous builds = 0
            
Total wall time: 0:00:00
                                                                                                                                                                                                                                                                                                                                                                                                                                                                                                                                                                                                                                                                                                                                                                                                                                                                                                                                                                                                                                                                                                                                                                                                                                                                                                                                                                                                                                                                                                                                                                                                                                                                                                                                                                                                                                                                                                                                                                                                                                                                                                                                                                                                                                                                                                                                                                                                                                                                                                                                                                                                                                                                                                                                                                                                                                                                                                                                                                                                                                                                                                                                                                                                                                                                                                                                                                                                                                                                                                                                                                                                                                                                                                                                                                                                                                                                                                                                                                                                                                                                                                                                                                                                                                                                                                                                                                                                                                                                                                                                                                                                                                                                                                                                                                                                                                                                                                                                                                                                                                                                                                                                                                                                                                                                                                                                                                                                                                                                                                                                                                                                                                                                                                                                                                                                                                                                                                                                                                                                                                                                                                                                                                                                                                                                                                                                                                                                                                                                                                                                                                                                                                                                                                                                                                                                                                                                                                                                                                                                                                                                                                                                                                                                                                                                                                                                                                                                                                                                                                                                                                                                                                                                                                                                                                                                                                                                                                                                                                                                                                                                                                                                                                                                                                                                                                                                                                                                                                                                                                                                                                                                                                                                                                                                                                                                                                                                                                                                                                                                                                                                                                                                                                                                                                                                                                                                                                                                                                                                                                                                                                                                                                                                                                                                                                                                                                                                                                                                                                                                                                                                                                                                                                                                                                                                                                                                                                                                                                                                                                                                                                                                                                                                                                                                                                                                                                                                                                                                                                                                                                                                                                                                                                                                                                                                                                                                                                                                                                                                                                                                                                                                                                                                                                                                                                                                                                                                                                                                                                                                                                                                                                                                                                                                                                                                                                                                                                                                                                                                                                                                                                                                                                                                                                                                                                           
Total wall time: 0:00:00
