# LAMMPS data file written by OVITO Pro 3.12.4

851 atoms
5 atom types

0.0 250.0 xlo xhi
0.0 90.51 ylo yhi
0.0 181.02 zlo zhi

Atoms  # atomic

1 1 40.4483 55.2913 93.1714
2 3 42.397 56.5092 91.6069
3 2 34.0941 56.7389 93.3683
4 1 32.6642 60.5118 93.2783
5 2 37.4932 59.2055 90.1308
6 1 36.8702 57.7703 92.5021
7 1 39.0298 60.0089 92.2705
8 1 35.6421 60.5349 91.8607
9 3 39.6934 57.445 91.6358
10 3 37.3372 59.826 94.3119
11 2 40.0499 59.6419 89.618
12 1 42.7199 60.9102 89.4684
13 1 42.3769 57.4294 94.1329
14 1 41.8278 59.163 91.6979
15 3 43.7394 58.266 90.1253
16 2 43.7288 59.8894 93.4838
17 1 44.8625 57.618 92.5755
18 2 45.97 59.5162 94.2715
19 3 47.6959 60.4467 92.4683
20 1 45.1483 60.3734 91.1485
21 4 47.8613 57.888 93.8388
22 2 50.2121 60.2639 93.4327
23 3 29.5315 65.4896 93.6902
24 5 33.533 62.8859 92.0817
25 1 30.6548 63.0521 93.1968
26 5 34.7514 65.0121 93.5546
27 3 32.271 65.18 92.7245
28 1 34.119 65.3647 90.6854
29 5 34.9992 62.515 89.6815
30 1 36.8915 64.7624 89.3897
31 3 39.714 64.7279 88.963
32 1 37.8841 62.0009 90.1734
33 3 37.6367 62.0701 92.856
34 3 36.1323 63.5698 91.8116
35 1 37.529 64.3439 94.1883
36 1 39.0915 64.4611 91.5364
37 1 39.9627 66.0031 94.2778
38 2 36.69 65.9957 91.8405
39 2 44.5916 63.3879 91.4052
40 1 42.1239 63.8342 90.0094
41 1 40.2013 62.1842 88.3651
42 1 44.8033 62.9956 88.8435
43 3 39.9944 62.5795 93.1512
44 2 41.6742 64.639 92.5676
45 3 40.4931 61.8443 90.9429
46 1 42.6273 62.0538 92.4748
47 2 43.68 65.8419 88.8196
48 1 44.0546 66.0312 91.5584
49 1 44.0444 64.375 94.1052
50 1 46.3456 65.4197 89.7982
51 5 46.4887 64.7989 92.6226
52 1 47.1891 62.6429 90.7184
53 1 48.8762 63.0942 93.1293
54 1 45.7741 62.0345 93.4964
55 2 48.7776 65.5607 91.5743
56 3 50.4628 65.2887 93.7001
57 3 51.5805 62.579 93.9297
58 1 33.92 54.4196 98.4551
59 3 34.1293 56.2506 95.9568
60 1 38.6579 53.9161 95.2244
61 1 36.4607 55.7911 94.6843
62 3 38.3697 56.3794 96.5779
63 1 38.7567 54.3435 98.2834
64 2 36.341 53.8112 96.8657
65 1 36.3631 53.5546 99.8867
66 1 36.0361 56.3076 97.9202
67 2 38.7272 52.1964 100.13
68 3 37.1384 56.1051 100.262
69 2 41.4974 53.276 94.8153
70 2 43.4654 55.0509 94.5972
71 1 40.841 55.5824 96.1686
72 3 41.3939 55.4625 98.7298
73 3 44.0682 52.2319 99.3455
74 1 43.7877 54.8541 99.8461
75 1 42.9829 53.5713 97.2187
76 1 41.352 53.0738 99.8596
77 2 40.4128 52.5722 97.1499
78 3 48.5969 55.6868 98.9437
79 1 47.7466 55.9725 96.3583
80 1 46.394 53.7374 98.7435
81 2 45.3136 54.7582 96.4455
82 2 29.6212 58.6272 97.1622
83 1 29.0222 61.4642 97.8625
84 3 29.3157 59.9704 100.067
85 5 30.21 57.4108 99.7402
86 1 34.85 58.9933 94.4814
87 1 32.138 58.252 95.3077
88 2 33.4538 60.7769 96.166
89 3 34.4047 60.1157 98.7975
90 1 31.8515 59.7366 98.0917
91 1 32.0313 56.6007 97.6849
92 3 34.2882 58.3891 97.1414
93 1 30.6475 60.9075 95.4593
94 1 33.8334 57.5971 99.8053
95 1 36.1438 60.5443 96.8148
96 1 39.5173 60.1293 99.9868
97 1 39.3623 57.1358 98.9994
98 1 36.7568 58.8395 99.1804
99 1 38.8265 59.2024 96.9491
100 2 36.6741 58.0369 96.0163
101 1 39.1932 57.6917 94.3747
102 2 44.6585 59.3641 98.6699
103 1 41.9125 58.6036 98.7931
104 1 43.3796 56.58 97.1935
105 3 41.1584 58.2491 96.3377
106 1 43.7231 59.2761 96.0931
107 2 43.4683 61.4122 97.7329
108 1 40.9815 61.2025 97.2768
109 1 42.4201 61.1609 100.215
110 1 41.1078 60.256 94.4525
111 3 45.224 57.0661 95.2131
112 2 49.6622 59.8355 100.024
113 1 47.0364 60.5112 99.249
114 2 49.2629 60.3496 97.7016
115 1 48.3394 60.941 95.1605
116 1 46.7481 58.7843 96.6901
117 1 45.9181 56.6973 98.5384
118 2 48.2697 58.1192 98.7351
119 1 49.6996 58.207 96.1562
120 1 51.3457 60.6908 95.9815
121 1 50.7952 57.5058 98.8747
122 1 52.0788 60.3805 98.9959
123 4 27.1819 63.6467 96.6834
124 1 29.9325 63.8331 96.1029
125 4 28.3864 64.5092 98.9551
126 4 26.1276 65.9564 98.3692
127 1 32.8081 63.2295 95.106
128 3 35.0545 64.4358 95.9858
129 2 35.1194 65.3684 98.5747
130 4 32.8354 64.9552 97.3487
131 4 32.6616 64.3155 99.8052
132 1 34.5417 62.7036 97.9726
133 3 31.7038 62.432 97.6359
134 1 31.6343 66.1399 95.1038
135 4 30.5872 65.9364 98.1064
136 2 32.8799 61.722 99.7846
137 1 30.3206 62.6867 100.185
138 1 37.1079 65.9643 96.8017
139 1 35.4484 62.117 94.4048
140 1 38.6912 61.7909 95.3331
141 2 38.3048 61.6676 98.1313
142 1 39.4488 64.3514 96.9382
143 1 37.3495 64.0448 99.2937
144 3 36.3896 61.5204 99.6726
145 2 36.919 63.1826 96.7278
146 1 42.6545 66.2526 95.9973
147 1 41.117 65.9514 98.7626
148 1 41.4486 63.4482 95.1129
149 5 44.6793 64.1304 96.9178
150 2 42.7277 64.0289 100.141
151 2 42.2838 63.6752 97.712
152 1 40.2116 63.0924 99.4971
153 2 43.4747 61.8169 95.1732
154 1 43.97 66.3453 98.9434
155 1 49.6751 65.3149 99.4312
156 1 48.9629 62.5569 100.344
157 1 45.7828 61.5403 96.4986
158 1 48.0505 66.3067 94.3929
159 2 46.8442 63.8615 95.1392
160 1 44.9833 62.6444 99.44
161 4 48.0447 65.0829 96.9729
162 4 46.7269 64.7364 99.0876
163 4 48.016 62.6749 97.6696
164 3 50.5852 62.4064 98.1667
165 1 53.1185 62.7643 97.0184
166 3 53.9839 64.6393 98.9702
167 1 50.0773 63.4765 95.8297
168 2 52.5115 64.8364 95.2664
169 2 51.6483 64.69 97.9133
170 1 51.9088 63.2971 100.265
171 1 54.5414 62.0411 99.5071
172 5 29.9653 55.3861 102.711
173 1 32.6223 54.8923 103.626
174 5 33.7728 52.8426 101.316
175 1 34.8715 55.4558 101.69
176 1 34.7117 52.7262 104.147
177 1 31.9221 55.0743 100.512
178 3 33.3643 54.3104 106.052
179 4 38.0414 56.4125 105.403
180 1 39.6812 54.3152 104.323
181 1 37.242 53.3628 102.781
182 3 37.317 53.6711 105.655
183 1 35.5286 55.4824 104.699
184 1 39.339 54.9357 101.213
185 2 37.3952 56.1362 102.806
186 1 39.5398 52.244 106.405
187 1 41.2275 56.3955 105.911
188 3 44.4683 55.5866 102.298
189 2 43.9015 55.4692 104.881
190 1 44.3417 52.9309 104.401
191 1 42.1866 54.4076 102.703
192 5 41.57 51.8574 104.329
193 4 42.909 51.6441 101.835
194 3 40.0086 52.5224 102.307
195 2 41.5099 56.4787 100.953
196 1 46.9109 55.507 101.065
197 3 48.32 55.8562 103.355
198 4 48.1506 53.4148 102.626
199 3 46.1548 54.7134 103.635
200 5 45.3649 53.0584 101.632
201 1 46.5574 56.3213 105.641
202 2 49.3019 55.5654 105.636
203 4 47.0816 53.4442 105.702
204 2 49.9157 55.1447 101.143
205 3 28.7198 56.6401 104.733
206 1 29.3986 58.1489 102.431
207 1 29.0093 59.3868 105.157
208 1 29.3637 61.1015 102.635
209 3 31.6329 59.3906 103.572
210 1 31.7738 59.5709 100.987
211 3 33.8259 60.5963 103.888
212 1 34.1032 57.9273 103.622
213 1 31.319 57.2326 104.992
214 1 34.6676 60.2151 101.436
215 2 32.0423 57.1825 102.125
216 1 31.4065 61.441 105.103
217 1 33.2022 59.3703 106.246
218 2 33.7955 56.7168 106.297
219 3 35.2871 60.896 105.696
220 1 37.8843 60.9439 106.104
221 1 39.5513 60.2993 103.129
222 2 39.1039 58.7205 105.465
223 1 36.9724 58.7726 103.732
224 3 37.3048 60.1193 101.466
225 2 38.4697 57.991 101.343
226 3 35.9236 57.8594 101.512
227 1 39.9878 57.2093 103.265
228 1 42.6526 60.6444 103.277
229 5 41.5777 59.1794 105.453
230 2 44.5864 59.2158 104.521
231 1 42.8978 57.4719 103.424
232 1 43.9411 57.6642 100.671
233 3 41.4238 58.9147 101.542
234 1 47.997 60.2606 102.183
235 3 48.3384 60.8801 104.64
236 1 48.6202 58.2184 104.532
237 1 46.0779 57.6247 103.066
238 3 46.6113 58.2601 100.558
239 1 45.0211 60.2131 101.52
240 1 49.0463 57.6287 101.413
241 1 46.5206 59.4778 106.36
242 1 50.9782 56.5923 103.514
243 1 51.0556 57.6676 106.291
244 1 50.8862 59.9695 104.012
245 1 53.4759 61.0507 102.081
246 2 53.1986 58.7204 104.14
247 1 51.9166 58.5673 101.471
248 2 50.7896 61.1935 101.691
249 1 25.6685 65.1674 103.587
250 5 25.6907 64.3309 100.703
251 4 26.8887 62.4613 103.536
252 1 28.2233 64.7185 101.92
253 1 28.7734 62.3955 105.874
254 3 28.1069 64.7364 104.713
255 2 30.1177 63.512 103.43
256 1 30.1773 66.2192 103.849
257 5 27.4696 62.0707 100.474
258 4 32.4685 64.951 102.555
259 1 34.1876 63.2989 104.375
260 1 31.5165 64.3293 105.599
261 1 32.2947 62.1397 102.365
262 1 34.9574 63.3394 101.154
263 4 30.5952 65.7161 100.723
264 1 34.9503 66.2182 103.17
265 4 39.5406 65.3652 103.342
266 1 36.9169 64.5701 104.931
267 2 38.8661 62.8166 104.056
268 1 36.4988 61.7395 103.396
269 4 37.3697 64.3916 102.181
270 2 39.4459 65.3098 100.795
271 3 38.4105 62.258 101.336
272 2 38.844 66.0657 106.123
273 1 42.0235 65.8664 101.986
274 1 43.3765 63.8062 104.261
275 4 41.0707 62.0088 105.295
276 1 40.997 63.0005 102.322
277 2 43.9055 62.6574 101.992
278 4 41.0239 64.9251 105.2
279 3 44.2749 66.2888 103.585
280 1 44.1042 66.1302 106.241
281 3 48.7987 66.0292 103.707
282 4 48.8915 63.1541 103.284
283 1 46.4037 64.5456 104.222
284 2 46.5324 62.6276 101.725
285 1 45.7192 61.6091 104.122
286 4 47.8303 64.9466 101.595
287 1 44.9842 65.001 101.476
288 1 48.7365 64.8216 106.264
289 1 54.3296 64.0943 101.746
290 1 51.3827 65.3152 105.168
291 4 51.7958 63.2483 103.132
292 2 50.5727 65.2347 102.064
293 4 50.4633 62.4712 105.265
294 3 52.9673 65.9961 102.999
295 1 54.1356 64.3103 104.805
296 3 53.1652 61.6044 104.67
297 1 33.3803 55.0868 108.613
298 3 33.3353 56.5368 111.035
299 5 30.775 56.0356 109.523
300 2 31.0853 55.1799 106.752
301 1 35.2116 52.8418 107.099
302 1 37.7861 53.0869 108.546
303 1 36.3022 55.5619 107.708
304 2 39.1998 54.9589 107.12
305 3 35.4248 53.6498 109.715
306 3 37.7975 53.8388 111.066
307 3 38.4469 55.6912 109.577
308 1 35.9937 56.004 110.794
309 3 42.4338 55.9343 108.233
310 1 40.6167 53.9481 109.134
311 1 43.3962 54.5072 110.337
312 2 41.0577 54.3241 111.864
313 3 42.9041 56.5102 112.219
314 1 42.207 53.7009 106.506
315 1 44.8585 54.6805 107.538
316 3 46.023 55.2164 109.958
317 1 47.9939 55.135 108.047
318 1 45.7172 56.5328 112.38
319 1 29.1903 57.3235 107.34
320 2 27.9023 60.4326 107.744
321 2 29.0009 58.8394 109.655
322 1 30.1791 61.366 110.287
323 1 34.1308 57.9246 108.843
324 2 31.8008 57.5448 107.704
325 1 30.5787 60.0 107.644
326 1 31.6343 58.5986 110.445
327 2 33.3288 60.6499 111.279
328 2 32.8348 60.4706 108.921
329 3 37.7228 60.8227 111.353
330 1 39.2289 57.6346 107.919
331 3 36.7754 57.8581 108.98
332 2 38.1066 59.9421 108.748
333 1 35.4557 60.6945 108.494
334 1 35.5769 59.1669 111.063
335 1 38.3888 58.1665 110.996
336 1 36.1304 58.3947 106.491
337 1 41.9403 58.7491 108.341
338 1 43.9947 57.5494 106.57
339 1 40.2641 60.3696 110.439
340 1 40.9637 56.6925 110.373
341 2 44.682 59.4432 108.367
342 1 44.2303 57.2774 109.915
343 3 42.5167 59.0399 110.984
344 1 43.5861 61.0126 106.41
345 2 40.3049 60.7121 107.455
346 3 48.8356 61.3292 109.248
347 1 49.4954 60.132 106.98
348 3 46.1652 57.0888 108.182
349 2 46.9636 58.8906 111.982
350 4 44.9866 59.8778 110.885
351 1 47.4001 59.1293 109.249
352 1 48.1966 56.7096 110.526
353 3 48.4165 57.6048 107.182
354 1 49.7363 59.333 111.226
355 1 51.4727 60.9051 109.217
356 2 52.2319 60.1473 106.559
357 3 50.0995 58.1912 108.847
358 5 26.3517 63.7476 106.593
359 1 28.159 62.9895 108.935
360 2 27.244 65.6066 109.218
361 1 28.8508 65.0513 111.604
362 1 29.0379 65.2389 107.181
363 3 30.701 62.7181 107.791
364 3 32.2206 64.7397 108.093
365 3 30.3831 64.3737 109.616
366 1 32.5873 63.0063 110.164
367 2 34.7593 65.485 111.178
368 1 34.9434 64.1089 108.955
369 1 31.9314 65.7861 111.677
370 1 34.3786 65.4711 106.43
371 1 33.346 62.3841 107.13
372 1 39.0457 63.173 111.436
373 2 37.1029 65.1855 107.623
374 1 39.1322 63.4841 106.739
375 1 35.5446 62.3561 111.392
376 1 37.6175 62.5494 109.006
377 4 37.2154 65.1728 110.301
378 1 39.6984 65.4145 109.01
379 3 36.04 62.9317 106.757
380 1 42.8654 61.5155 112.279
381 1 42.2389 63.9522 107.514
382 2 40.3551 62.6261 109.02
383 5 44.4485 64.0353 109.537
384 1 42.9114 61.48 109.299
385 1 41.8473 64.1976 110.624
386 1 48.8559 66.2331 108.95
387 4 45.0953 63.3876 106.643
388 3 48.0051 63.5849 108.557
389 1 46.08 61.7554 108.838
390 5 46.2533 65.4041 108.078
391 3 49.2615 65.7464 111.684
392 1 47.0839 64.3212 110.885
393 1 47.6741 61.5079 111.542
394 2 45.1648 62.3856 111.395
395 3 45.5044 66.3746 110.881
396 4 47.5347 62.3098 106.434
397 1 53.622 65.7472 107.609
398 3 50.1146 62.7102 107.696
399 1 52.7266 62.8661 107.05
400 1 52.8536 63.6122 109.934
401 1 49.9763 63.5747 110.28
402 2 51.0392 64.9151 107.971
403 2 50.9434 61.7501 112.018
404 1 38.823 55.7763 112.551
405 2 41.2233 55.8721 113.985
406 1 34.906 58.6467 115.768
407 2 31.1331 60.2546 112.688
408 4 32.3678 60.0473 115.474
409 1 33.3735 58.4409 113.043
410 1 36.3114 57.3761 113.469
411 1 37.5057 60.073 116.091
412 1 38.849 57.3037 115.157
413 2 38.1476 59.4396 113.4
414 5 35.6212 60.3385 113.631
415 3 39.9595 59.5929 115.212
416 3 42.1968 60.3995 114.591
417 1 40.7918 58.3964 112.928
418 1 43.8868 58.7557 113.333
419 1 42.0852 57.9101 115.635
420 1 40.1601 61.3611 113.325
421 1 41.317 60.3304 117.249
422 1 44.2181 60.2348 116.175
423 1 48.7874 60.2988 113.926
424 1 46.4515 58.6247 114.745
425 2 48.5871 57.4908 113.233
426 3 45.7256 60.7735 113.297
427 4 33.2804 61.5808 113.635
428 1 34.8352 61.7071 116.224
429 1 30.876 63.1193 112.713
430 2 33.572 63.7965 112.542
431 1 32.5848 63.8721 115.203
432 2 31.1126 65.9313 114.25
433 1 34.3089 66.0261 113.823
434 1 34.8546 64.9806 116.716
435 1 37.3586 65.7198 115.026
436 1 39.5141 65.7931 112.462
437 2 35.2698 63.5639 114.387
438 2 39.5222 64.0567 114.54
439 1 37.4061 63.2517 116.861
440 1 37.5227 62.2961 113.984
441 2 39.5337 61.953 115.908
442 2 36.7668 64.4815 112.649
443 3 37.243 65.8218 117.809
444 1 39.8086 65.3406 116.883
445 1 41.9994 65.8393 114.805
446 1 42.6911 64.9139 117.676
447 2 42.8252 62.2054 118.426
448 1 42.0503 62.8405 115.693
449 2 40.3038 62.9205 118.084
450 3 44.2663 62.3626 114.381
451 2 41.5567 63.7632 113.181
452 1 44.163 64.5735 112.54
453 3 44.6925 62.7825 116.973
454 1 44.8239 64.8297 115.418
455 1 47.0051 66.0067 113.324
456 3 49.5475 65.9428 114.286
457 1 49.0475 63.3899 113.4
458 3 46.3859 63.3279 113.448
459 1 47.7196 64.541 115.837
460 1 46.7637 61.7461 115.543
461 1 51.596 64.7128 112.622
462 3 29.7648 68.0601 94.3204
463 3 32.9132 68.0347 90.4849
464 1 34.4665 70.309 90.7701
465 1 31.9194 70.2107 92.3832
466 3 31.4602 67.5029 92.6125
467 1 34.1704 67.6806 92.7607
468 5 34.5457 70.4178 93.6356
469 1 38.6072 67.1765 89.0062
470 1 37.8768 69.9431 90.0464
471 2 36.4983 69.1158 92.2544
472 2 38.7603 70.2455 92.7314
473 1 38.8727 67.6121 91.8949
474 1 35.7683 67.7262 89.9588
475 1 36.917 67.2984 94.1927
476 2 40.5901 69.256 89.4226
477 1 41.2946 66.6553 90.4457
478 2 42.9219 71.2954 90.844
479 1 43.7127 68.616 90.1716
480 1 41.3118 69.3612 92.0259
481 1 44.1423 69.0763 93.0391
482 2 42.2649 66.9747 93.2281
483 3 45.1138 66.7726 94.0116
484 2 45.695 70.6958 91.4797
485 1 48.3353 70.301 92.7579
486 1 46.7123 67.7619 91.8187
487 3 49.5694 67.8055 92.8066
488 2 51.0959 70.0298 93.3119
489 1 51.978 67.5081 94.2037
490 3 34.2549 72.9254 92.8259
491 1 39.272 75.6517 93.9174
492 1 36.3808 74.784 93.216
493 3 38.6663 74.053 91.7492
494 1 36.6789 71.9721 91.9401
495 1 38.4923 72.7483 94.1012
496 1 41.4411 73.7254 92.7019
497 1 40.0271 71.8268 91.0168
498 1 44.4249 73.3479 92.0498
499 3 42.9346 71.4626 93.3247
500 3 40.6788 71.3433 93.8634
501 5 47.3532 72.9404 92.3044
502 1 45.4677 71.6281 94.1467
503 1 29.901 70.6258 95.1632
504 1 28.3262 67.63 98.8772
505 1 28.4813 66.4404 96.1071
506 1 29.0125 70.4748 98.2244
507 2 30.3263 68.3471 96.8463
508 1 34.0463 69.9619 99.4282
509 4 31.1149 68.6976 99.6653
510 4 32.7904 67.7301 97.8596
511 2 34.6851 69.7288 96.2356
512 1 32.3541 68.9514 94.936
513 1 34.4947 67.0244 95.7838
514 1 32.018 70.561 97.3816
515 4 33.7861 66.7761 100.225
516 1 36.851 70.7492 97.7114
517 2 38.5673 66.7193 98.8624
518 1 39.4452 69.2279 98.8104
519 4 35.8345 68.0803 98.3053
520 3 37.8967 68.4684 96.6581
521 1 37.0865 70.1859 94.7947
522 1 39.7294 70.6607 96.2631
523 2 39.235 68.5826 94.472
524 2 40.1014 67.3826 96.6657
525 1 42.3545 68.8986 97.7742
526 2 44.1922 68.7198 95.7966
527 1 41.7325 68.9834 94.8683
528 2 41.5837 68.0008 100.253
529 1 43.2791 70.0056 100.307
530 1 45.8067 66.7614 96.6104
531 3 47.671 69.8745 96.9829
532 1 45.5247 69.1206 98.6564
533 2 46.4154 67.0084 100.143
534 3 48.0533 69.7787 99.8516
535 1 48.2439 67.6721 98.1648
536 1 49.5381 69.0058 95.3177
537 1 46.6505 68.9535 94.7099
538 2 45.4397 70.6859 96.5937
539 1 53.0553 69.1905 99.0791
540 1 53.2728 66.6989 97.2979
541 1 50.429 66.4223 96.3254
542 2 50.8896 67.6415 98.6419
543 1 50.0879 70.1452 98.1376
544 2 52.0277 68.9843 96.5262
545 2 28.9047 72.9823 99.8243
546 1 33.5022 73.2304 99.7129
547 1 30.9879 74.9277 99.2037
548 2 32.8765 73.7734 97.1211
549 2 31.2602 71.8769 99.5155
550 1 30.2788 72.9698 97.09
551 1 32.5994 72.1923 94.9145
552 1 34.4908 75.3227 95.5241
553 3 34.3246 71.8418 97.4584
554 1 33.5373 76.1228 98.4011
555 2 35.7007 75.7444 99.9436
556 1 35.9526 73.9249 98.0041
557 4 35.9018 71.8462 100.109
558 1 38.5383 72.6045 99.4898
559 2 38.36 72.9022 96.8449
560 2 37.4408 74.8839 95.8594
561 1 35.634 72.6536 95.2859
562 2 37.9841 75.5122 98.7895
563 4 40.273 74.6215 98.1292
564 4 42.9235 74.1261 97.921
565 3 44.1362 71.7337 98.4972
566 5 41.3 71.8092 98.5055
567 1 42.9111 71.4688 96.0185
568 1 40.8121 73.6094 95.6691
569 5 43.5761 74.083 94.7398
570 5 47.6137 74.8682 97.4177
571 1 47.2369 71.9303 98.5046
572 1 45.3649 74.235 99.6312
573 5 45.3561 73.272 96.7628
574 1 46.4524 74.5184 94.5111
575 1 48.1843 72.0531 95.4352
576 4 45.0324 76.1571 97.3122
577 3 52.2174 71.7635 98.4398
578 3 49.8049 75.7304 98.976
579 2 49.9972 71.6981 100.264
580 1 49.9648 73.2 97.7912
581 1 51.2148 71.4697 95.7011
582 1 51.5844 73.9818 100.233
583 2 32.1416 77.7145 100.298
584 1 35.0448 78.3333 99.9827
585 2 36.9945 77.1372 94.7386
586 1 37.9359 78.9521 98.7184
587 1 39.2241 76.8597 96.7131
588 1 36.214 76.9964 97.3927
589 3 44.7458 77.3917 99.8369
590 4 41.8955 76.3411 95.022
591 1 40.0664 76.9404 99.9423
592 4 40.6488 79.2486 97.8262
593 1 42.4785 78.9426 100.054
594 4 42.2815 76.8715 97.8343
595 1 47.3442 76.6677 99.8682
596 1 26.3053 67.1533 101.287
597 5 29.1138 67.8075 101.603
598 3 25.4261 67.9875 103.963
599 2 27.6503 66.9669 103.631
600 1 26.3572 66.5711 106.159
601 5 28.7549 67.9969 105.68
602 1 27.4748 69.6828 103.255
603 1 26.5037 69.7775 106.03
604 3 27.2513 69.6389 100.443
605 1 29.189 71.1447 105.61
606 1 29.5975 70.6595 101.244
607 1 30.5879 69.1731 103.774
608 1 34.0945 69.0416 104.094
609 2 32.7396 66.8125 104.664
610 4 32.2659 67.7098 102.059
611 3 34.9529 68.7 101.591
612 1 32.4977 70.6612 101.827
613 2 35.0389 71.1288 102.383
614 1 32.0056 69.8583 106.201
615 1 36.4225 67.6839 105.751
616 2 39.6107 70.5835 103.706
617 1 38.1727 70.3223 105.965
618 1 39.6253 68.0636 104.655
619 1 37.0355 69.305 103.198
620 3 37.5252 66.774 103.436
621 1 39.3011 67.9455 101.628
622 1 36.6654 66.7914 100.733
623 2 37.2743 69.6574 100.459
624 1 41.9648 69.7121 105.653
625 1 44.6908 68.7635 104.34
626 1 42.0297 68.9106 102.775
627 2 42.2003 67.038 104.579
628 1 40.3602 70.8768 101.141
629 2 44.0484 67.6045 101.378
630 3 44.1542 70.7741 102.657
631 3 46.3177 70.9313 103.957
632 1 48.1894 69.0038 103.851
633 1 46.8769 67.1571 105.774
634 2 46.5571 66.9488 102.904
635 1 48.8423 67.6156 101.238
636 1 46.0877 69.2428 101.655
637 3 49.5749 67.2914 105.522
638 1 52.8467 70.3579 103.895
639 3 50.3293 70.4193 102.765
640 1 50.4854 69.7985 105.523
641 1 53.3588 67.6138 105.175
642 1 51.0143 67.7927 103.211
643 2 50.83 69.1986 100.668
644 3 53.2068 68.5743 101.853
645 1 52.5132 71.2686 101.145
646 1 52.4538 66.4099 100.393
647 1 29.7906 74.5326 104.36
648 2 27.1233 72.8106 105.48
649 1 28.2068 72.5886 102.897
650 3 31.3182 72.966 105.938
651 3 33.5285 73.0614 102.329
652 2 32.5232 74.46 104.101
653 1 33.4209 71.8721 104.665
654 1 30.9803 73.5038 101.769
655 3 30.8804 71.8596 103.743
656 1 33.2537 75.626 101.613
657 2 30.3421 76.1369 101.671
658 1 31.3742 75.9257 106.398
659 2 37.7882 75.4865 104.122
660 1 38.1267 73.2176 105.337
661 2 36.0949 71.4251 104.656
662 1 37.5332 72.1249 102.438
663 1 35.3897 74.0179 104.021
664 3 35.6341 73.9218 101.428
665 1 38.1495 74.91 101.438
666 3 40.6109 74.0272 100.513
667 1 42.756 75.8117 100.695
668 5 42.9284 74.4318 106.248
669 3 40.6728 75.6581 102.413
670 1 40.4445 75.408 105.118
671 4 40.7953 72.3341 105.656
672 1 44.069 71.7936 105.292
673 5 42.817 74.0647 103.462
674 3 42.0514 71.5005 103.396
675 1 40.1173 73.2357 103.009
676 1 42.9217 72.7931 100.911
677 2 47.3423 75.5883 105.707
678 1 46.7381 73.0757 105.751
679 3 45.55 71.5711 100.499
680 1 47.8138 74.653 103.279
681 2 48.7431 71.7671 104.467
682 1 45.4285 73.0678 102.705
683 3 45.0801 74.9382 104.736
684 1 45.3506 75.9794 102.167
685 1 47.951 71.4711 101.914
686 1 48.3377 73.9393 100.397
687 1 49.926 76.1242 101.77
688 2 53.0269 73.1111 103.193
689 2 51.6356 72.2638 105.596
690 1 50.4264 73.1009 102.832
691 1 49.8476 74.4066 105.561
692 1 33.6535 78.5129 102.625
693 1 33.9741 76.8262 105.098
694 3 31.6646 76.7542 103.68
695 1 38.8702 77.5808 102.931
696 1 36.3497 78.756 104.536
697 1 35.8693 76.5957 102.567
698 5 38.9831 80.2503 103.981
699 2 36.8644 79.3998 101.853
700 5 38.457 77.4273 105.937
701 1 39.698 79.7241 101.08
702 3 37.5115 77.3275 100.602
703 2 41.5483 77.8335 102.252
704 4 41.5262 81.157 105.188
705 3 41.8536 80.1427 102.818
706 3 43.6202 79.2868 104.984
707 1 41.0549 78.3684 104.926
708 4 43.0874 76.6394 103.928
709 1 44.2824 78.7551 102.359
710 1 45.8614 77.6211 104.782
711 2 47.4231 77.7185 102.407
712 1 49.0835 77.1857 104.51
713 1 29.9865 67.032 109.551
714 3 27.7162 67.548 111.012
715 1 29.3502 69.8939 110.311
716 1 27.3821 68.2639 108.435
717 3 29.6212 69.2778 107.604
718 2 27.9485 71.2433 108.151
719 3 32.0232 70.9886 110.369
720 2 34.2311 67.8614 111.55
721 3 31.8775 68.6187 111.07
722 1 34.0932 69.9159 108.992
723 3 31.6466 69.0743 108.76
724 2 33.8498 68.0186 106.89
725 1 33.0955 66.8582 109.28
726 1 31.2736 67.0864 106.846
727 1 33.9579 70.4844 112.025
728 2 35.0587 70.056 106.409
729 5 36.346 69.2891 110.696
730 3 38.3494 67.4714 110.429
731 1 35.8868 67.2962 108.777
732 1 38.6253 68.0503 107.878
733 2 36.7975 69.9952 108.197
734 1 39.0506 70.1542 110.08
735 1 42.24 66.9186 111.936
736 2 42.4286 69.2763 108.834
737 1 43.4443 66.695 109.151
738 2 40.7357 67.826 109.923
739 1 41.3438 67.2193 107.177
740 3 40.2935 70.1444 107.712
741 1 44.5138 68.8228 111.074
742 2 44.1499 68.7567 107.011
743 1 41.9388 70.1035 111.374
744 3 48.1848 70.1698 109.252
745 1 47.7903 67.9941 111.258
746 1 46.3406 68.1372 108.714
747 2 48.7479 68.6736 107.394
748 1 49.463 70.3784 111.938
749 1 46.5426 71.1089 111.146
750 1 44.8573 70.693 108.747
751 1 46.683 70.163 106.45
752 1 51.2012 70.5459 108.636
753 2 49.9481 68.508 109.793
754 3 52.038 69.2745 110.866
755 3 53.3531 68.4033 108.809
756 1 51.2584 67.6321 107.455
757 1 51.7971 66.4579 110.179
758 3 52.9293 69.8589 106.684
759 1 29.1288 73.8513 107.25
760 1 34.4407 75.4289 111.549
761 1 30.3232 72.9739 110.706
762 2 31.8873 75.2303 110.574
763 1 33.6768 73.0281 109.751
764 1 30.7391 71.6027 108.204
765 2 31.6848 74.1034 108.323
766 3 33.2186 71.8641 107.395
767 1 33.8431 76.0741 108.594
768 4 33.645 74.1899 106.478
769 2 37.195 75.0673 112.086
770 4 35.5874 72.8499 111.991
771 1 39.399 75.0693 109.886
772 5 38.1455 72.7657 111.176
773 1 36.4812 74.5973 109.35
774 1 38.6433 72.426 108.218
775 2 36.1515 71.7418 109.811
776 3 38.6639 75.1066 107.306
777 1 35.7977 72.5009 107.204
778 1 36.2673 75.5342 106.475
779 1 44.3009 76.0315 111.858
780 3 42.6382 73.9186 111.843
781 2 41.5475 76.0898 111.092
782 1 42.9675 74.655 109.214
783 1 40.9586 72.6136 110.312
784 1 42.3807 71.8364 107.917
785 3 40.7741 74.0088 107.726
786 2 43.7923 72.0334 110.811
787 2 44.8191 73.144 107.638
788 1 45.2987 75.7822 107.405
789 1 45.7771 73.945 110.097
790 3 47.6467 73.4755 112.064
791 3 46.9726 72.2137 108.482
792 1 49.2155 72.5953 110.049
793 1 48.1372 74.7071 108.19
794 1 49.1207 71.8166 107.106
795 2 51.0364 73.5011 108.023
796 2 36.2602 77.1436 110.421
797 4 39.2887 79.7864 107.053
798 5 38.242 77.4673 108.758
799 1 38.9088 77.1665 111.768
800 1 35.7496 78.1901 107.485
801 4 40.6322 78.7644 109.942
802 1 42.2656 79.505 107.437
803 1 40.952 76.7341 107.821
804 1 43.4883 77.5982 109.396
805 4 42.4693 78.2862 112.108
806 2 43.224 77.115 106.415
807 1 47.8581 77.653 107.257
808 1 46.4803 76.9117 109.86
809 5 45.1805 78.8734 107.358
810 1 29.8396 67.7999 112.637
811 1 32.7554 70.4171 115.009
812 2 32.4786 68.1516 113.399
813 1 30.9141 70.6332 112.773
814 1 32.952 67.3736 115.984
815 1 35.0605 68.8906 114.251
816 2 35.8043 67.5992 116.447
817 1 37.2219 70.565 112.962
818 1 38.4682 68.1375 117.08
819 3 37.686 68.4436 114.595
820 3 39.7616 67.2287 114.8
821 1 39.7322 70.282 115.124
822 1 36.866 70.6042 116.056
823 4 39.7647 70.7667 117.826
824 1 36.7412 67.1634 112.476
825 1 39.5809 68.6797 112.575
826 1 42.5437 70.4945 116.634
827 3 44.3472 70.6742 113.063
828 1 42.3015 68.9568 114.197
829 4 44.5665 67.3174 113.731
830 1 43.8175 67.5096 116.73
831 2 41.1707 67.9582 116.73
832 3 46.2702 69.1114 113.037
833 1 45.3235 69.6774 115.455
834 1 48.413 68.5367 114.405
835 2 46.5096 67.1136 115.869
836 1 50.7123 67.739 112.649
837 2 34.9931 71.8613 114.365
838 1 32.7222 73.1314 112.729
839 2 38.3976 75.8581 114.227
840 3 35.2362 74.4543 113.954
841 1 37.627 73.1366 114.254
842 2 39.8377 71.4809 112.686
843 1 42.191 72.0595 113.837
844 2 44.5252 72.2456 115.373
845 4 42.5738 73.3787 116.665
846 4 40.0698 73.2942 115.695
847 1 42.7453 74.9971 114.253
848 1 40.1077 74.2932 112.803
849 1 45.0487 73.3039 112.983
850 1 47.2573 71.4351 114.001
851 3 40.8712 76.7635 113.545
