ITEM: TIMESTEP
726
ITEM: NUMBER OF ATOMS
1985
ITEM: BOX BOUNDS ss ss ss
7.0195722853999996e+01 1.1237641714600001e+02
1.8754678130000002e+01 5.7982021869999997e+01
6.9512802005226362e+01 1.1073503020107736e+02
ITEM: ATOMS id type x y z fx fy fz
107 1 75.4445 26.8078 78.3143 -0.771454 -0.642791 1.14383
347 1 73.906 28.2806 81.9821 -0.794867 -0.0380694 0.636285
666 1 75.2823 27.1114 88.0452 0.667918 0.44931 0.419037
667 1 75.3679 26.1726 85.2128 -0.162525 -0.276735 1.72918
133 1 74.8693 32.2291 76.1521 0.63079 -0.389568 0.0123377
23 4 74.4292 36.0718 72.7668 0.43788 -0.0625553 0.261599
176 1 73.5362 37.1427 75.3164 0.579003 -0.443241 -0.673968
175 2 75.0017 34.8164 75.2204 1.48173 0.386994 -2.59246
131 5 71.6118 30.2144 79.7037 -0.506672 -0.211744 0.864993
136 1 72.9139 32.2351 78.3836 0.772007 -0.415265 -0.140083
394 1 74.375 31.7086 81.1081 -6.96875e-05 -2.02351e-05 3.55361e-05
389 1 71.6424 33.1918 80.7376 -0.0685961 -0.732768 0.723786
132 1 75.2224 29.3477 76.6874 1.04695 0.287136 -0.855256
134 1 74.2043 29.3183 79.2277 0.154433 -0.504614 1.31188
390 1 72.1003 30.466 82.6468 -0.0295278 0.170241 0.0401524
172 1 71.8268 37.0667 77.2683 -0.628617 -0.651001 1.29941
173 5 70.4896 38.0601 79.3101 0.150688 0.573788 1.43641
174 1 73.606 34.632 77.0885 -1.53132 0.681236 1.25878
179 3 72.6618 35.1056 79.3822 0.642891 0.70706 -0.359557
177 2 75.1327 36.7361 77.7484 -0.000103791 0.00021192 0.000182615
436 1 72.2553 36.3087 81.5919 1.407 0.684871 -1.71153
442 1 75.223 36.7662 80.5275 -0.00012347 0.000494066 -6.45688e-05
435 1 70.6984 34.4937 83.0602 -0.410701 0.152851 1.65719
439 2 74.3162 34.3768 81.4214 0.000421607 -1.42709e-05 -0.000280877
446 2 74.4777 38.0467 83.1567 0.000121498 -6.51275e-05 0.000149448
391 1 73.2138 33.0454 83.615 3.14479e-05 -0.000162729 -0.000176769
714 2 74.4976 31.6849 85.8964 2.3917e-07 0.00012822 2.25285e-05
710 4 72.8859 29.2354 87.554 0.607246 0.444435 0.564888
711 1 73.5441 28.6253 85.0096 -0.303073 0.0271797 -0.642299
712 4 71.8889 31.3171 85.4627 -0.0534125 -0.118542 0.258616
713 1 73.8727 32.3409 88.4463 -0.221638 -0.156224 -0.34846
398 2 74.8204 30.6084 83.6919 0.000260545 -6.02485e-05 -0.000173741
772 1 75.2797 34.3933 86.1277 0.000412633 2.40832e-05 -0.000115109
437 3 71.0601 37.4333 83.4007 -0.794323 0.145387 1.33844
438 1 73.3527 35.8857 84.3302 0.000263524 -0.000174839 -0.000109503
766 2 72.5652 33.8862 86.1482 -0.0114053 -0.148006 -0.321478
767 1 72.2118 34.8053 88.5578 -0.0318019 0.512806 0.320963
768 3 73.8321 36.4858 87.1291 0.000369583 -0.000241668 0.000219447
769 1 70.9555 36.2359 85.7723 0.125161 -0.379549 1.21818
771 1 71.9966 37.8023 88.7074 0.559933 -0.319886 -0.0629744
770 2 74.8611 34.7394 88.8165 -2.09495e-05 0.000110062 9.59378e-05
1065 4 73.8593 30.281 90.5472 0.136021 -0.0266901 0.301314
1115 3 72.2158 35.8968 91.007 0.280681 -0.0126846 0.158388
1120 2 73.2851 38.1565 92.2917 0.0206019 -0.808226 0.875088
1114 1 74.1139 33.6697 91.2903 -0.107337 0.467368 -0.238562
1117 1 74.6156 35.6392 93.6438 0.95767 0.259203 -0.710834
1118 1 74.563 36.8469 90.3093 0.000205926 -7.65205e-05 0.000204375
48 4 71.9606 39.5491 74.1212 0.10056 -0.148803 -0.0851856
50 4 73.7128 41.527 72.5519 0.000286341 0.142718 0.194328
49 1 74.809 38.8895 73.7172 0.0119127 0.83428 -0.218915
219 1 73.9886 41.1853 75.4903 -0.000362739 -5.541e-05 9.27467e-05
258 4 72.326 43.353 74.8279 -0.048967 0.0289577 0.220804
80 1 75.1877 43.697 74.4001 -0.0022234 -0.221415 -0.24563
259 2 73.2514 45.8356 75.5029 -0.413812 -0.461229 0.445663
215 1 71.1409 41.0096 79.3313 0.184328 -0.321535 1.67525
216 1 72.8803 42.625 77.7949 0.0968986 0.58809 -0.686129
217 5 71.6886 39.9821 76.8343 0.316507 -0.463033 -0.212751
221 1 73.4492 38.8153 79.1195 0.000103806 0.000147585 0.000280636
488 1 72.3149 39.371 82.3095 0.00429091 0.382223 -1.37985
489 1 72.1123 42.4357 82.1617 0.187008 -0.937095 -0.619753
218 2 75.1002 39.0091 76.6456 6.17698e-05 3.27955e-05 -0.000108644
493 5 74.0136 41.5394 80.1728 0.000182382 9.36472e-05 -7.67883e-05
537 1 75.166 43.2696 82.4234 -0.000271178 -0.000344805 0.000169036
541 3 74.5278 45.7843 81.3857 1.93888 0.632332 -1.96465
262 1 73.2261 45.644 78.3125 0.125692 0.32882 0.0641225
532 2 72.714 43.9338 80.2082 0.270719 0.453866 0.0842214
538 1 73.6583 48.1148 80.0538 -0.828063 -0.925615 1.29052
539 1 74.2762 47.8294 83.1346 0.314651 0.142468 0.429554
261 1 74.6919 47.9439 77.2912 -0.491531 -0.183061 0.374691
533 5 72.8027 45.2488 82.7373 -0.883231 0.0987198 0.912995
223 2 74.9547 44.14 76.8937 0.000174735 0.000143789 -0.000209892
491 1 71.81 41.2728 84.7395 -0.274614 0.404257 0.911361
818 4 70.2003 39.0295 85.4009 -0.341986 0.0290259 0.181057
819 1 73.0017 38.6107 85.5377 0.000158237 0.000202474 0.000149717
820 1 72.1738 40.6481 87.8168 0.0676129 0.152764 0.548764
490 2 74.1813 40.9152 83.4235 9.01847e-05 0.00016108 0.000350845
823 4 74.8366 38.8921 88.193 -0.000480452 -0.000457346 -0.00016967
822 2 74.5957 41.8409 88.7573 0.000131526 0.000279822 -6.87612e-05
821 1 74.5714 41.1735 86.1284 -0.000366788 -0.000292567 0.000104082
874 1 75.0848 44.2299 87.4997 0.000298596 -0.000131168 0.00027779
534 5 70.8469 44.0385 83.9277 -0.637873 0.0271862 1.68266
873 2 73.6135 43.4574 84.691 -2.23331e-05 0.000109601 -0.000291624
875 1 72.2235 43.608 87.0487 0.253771 -0.579283 0.337267
876 1 72.9371 46.0692 85.5843 -0.269644 0.240018 0.268338
878 1 73.8257 45.4726 89.8014 -0.248163 -0.472012 1.36145
877 3 74.7028 46.9647 88.0174 0.400585 0.509072 -0.867993
1175 1 72.7552 42.8891 90.5806 0.801102 -0.64732 -0.248006
1171 1 74.1851 40.0678 90.8983 0.317471 0.739736 -0.944522
1172 1 74.5236 41.7206 93.4426 0.268531 -0.0218827 0.252918
1508 3 75.391 40.5967 96.0634 0.450164 0.540031 0.583437
1224 1 74.7603 44.8587 93.2182 -0.18138 -0.574682 -0.264193
583 2 74.6051 50.6013 81.5796 0.160927 -0.311875 0.605979
926 3 74.805 48.3287 85.8832 0.227053 -0.406344 0.190307
1 1 80.3283 27.9578 74.5939 0.92507 -0.350774 0.0174005
353 1 79.3939 26.7875 79.9711 0.000267144 -0.000258902 0.000211877
108 3 77.564 25.184 77.9537 0.146643 -0.0703528 0.186252
110 1 79.7382 26.4182 77.1645 0.115521 -0.399783 -0.567118
346 1 77.1322 24.9875 80.5801 2.17312 -0.681021 -2.24604
348 3 75.9967 27.4364 80.9496 1.02035 0.602517 -1.60515
111 1 80.3042 23.9642 79.3383 -0.603797 -0.0615556 -0.119027
354 1 80.2152 24.4049 82.1846 1.62397 -0.620002 -2.00176
109 3 77.5403 27.7613 77.6366 1.07699 0.310965 0.391278
352 1 75.673 25.5586 82.589 -1.55007 0.15341 1.91846
351 1 78.1432 27.5339 82.5323 4.49953e-05 -0.000210323 -4.98762e-05
639 2 79.4775 21.9599 87.1106 0.185815 0.0906428 0.29614
328 1 80.2714 22.9583 84.767 0.267027 -0.477051 -0.26678
350 2 78.4974 25.1478 83.5415 -2.47474 1.07778 0.831143
349 3 75.9541 28.3008 83.7695 -9.57076e-05 -7.93359e-05 7.2467e-06
673 5 76.3312 24.3387 87.8505 -0.798845 0.323598 1.46393
671 1 79.4552 23.842 89.0512 0.769865 -0.60835 -0.0857982
668 1 77.8824 24.2003 85.792 0.753268 -0.0685468 -0.173392
669 2 78.3626 25.9725 87.8035 0.00016438 -8.23931e-05 -0.00010107
670 1 78.0361 27.3205 85.4831 0.000113129 0.000233284 -4.80175e-05
359 2 80.4475 26.0919 84.7618 -0.000399357 0.000391613 -8.90942e-05
672 1 80.4703 27.5101 87.2697 -0.000220974 0.00103062 0.00012432
1027 3 80.3131 27.4619 89.8482 -0.000161312 0.000673318 0.000367201
722 1 78.0784 28.4622 88.8339 9.22446e-05 0.000202159 -0.000193485
992 2 80.2686 23.4508 92.3368 0.163698 0.0523149 -0.0646245
1021 3 77.2196 27.4628 94.0745 0.685169 0.592988 -0.387421
1022 4 78.7536 25.115 93.4721 -0.204331 0.637753 0.249594
1023 1 78.3581 25.8596 90.5962 -0.918484 0.687575 0.672229
1370 1 79.9915 26.717 96.0118 0.243256 0.0835713 0.0237533
1020 1 76.1181 28.0565 91.0286 0.505216 0.263305 0.213629
1026 1 79.3309 28.1846 92.3852 0.000432334 -0.000507985 0.000162398
7 3 76.768 31.3167 74.568 -0.479986 0.59361 0.880283
8 2 78.3268 30.2157 73.2697 1.26375 -0.153167 -1.32159
9 3 78.5895 33.0285 71.8953 0.705558 -0.998321 -0.133434
140 1 79.3503 32.0618 74.9505 -2.17651e-05 0.000190262 0.000156082
137 1 77.8071 28.7317 75.374 -0.824739 0.881745 0.0116763
24 5 78.4738 35.6346 71.0334 1.15787 0.781538 -1.91355
25 1 77.4125 34.7897 73.1602 -1.70692 0.445797 3.35962
26 2 76.5994 37.6213 72.352 -0.449926 -1.27692 0.42481
27 1 79.9892 36.7344 75.4749 -0.000189102 5.49731e-05 0.000138814
181 5 77.2605 34.0622 76.1278 0.000103325 1.06171e-05 -5.24165e-05
30 3 80.1792 36.865 72.4307 -8.47425e-05 -4.90125e-05 7.32063e-05
183 1 76.6725 36.993 75.1994 -0.000286718 -0.000158915 0.000165241
29 1 80.3454 34.472 73.6589 2.84781e-05 6.11778e-05 2.98305e-05
56 3 78.5766 38.2065 73.7888 2.77672e-05 0.000145169 -9.06658e-05
400 3 79.5058 29.5039 81.6981 0.000916472 -0.000201834 0.000666925
402 1 80.3577 31.3619 80.0088 -0.000247545 -3.79697e-05 4.46544e-05
395 1 77.6059 32.013 81.0501 -0.000188346 -1.78353e-05 -0.000197084
135 2 75.6921 31.4352 78.8103 -0.000163672 0.000109765 -2.14116e-05
139 1 77.8244 31.4975 77.3874 0.000206892 -0.000134811 0.000327356
393 2 76.1704 29.8047 81.7719 0.000112518 0.000193917 -0.000219649
392 1 77.6232 29.3119 79.6416 0.000559229 -7.11733e-05 0.000284393
138 1 79.9706 29.5054 77.4625 2.31814e-07 2.16053e-05 -0.000155562
399 2 80.2363 31.4076 82.9764 -4.57794e-05 0.000243055 -0.000174818
440 1 75.8867 34.1126 78.9793 1.97802e-05 -4.04037e-05 -0.000264449
450 1 80.1481 36.7773 82.9398 2.27049e-05 -0.0001578 -0.000531526
443 2 78.5087 37.2956 80.3593 0.00034789 8.18717e-05 -0.000187041
448 1 80.2143 33.867 81.8983 0.000111287 -5.78377e-05 0.000228258
178 1 77.9297 36.3915 77.8615 -0.000147327 0.000256542 0.000184494
180 1 79.154 33.9645 78.9905 0.000298078 -2.67766e-05 5.6968e-05
184 1 80.4915 38.0339 78.3178 5.03454e-05 -1.15329e-05 0.000175638
185 3 80.6657 36.0194 80.2922 0.000287629 8.29103e-05 5.89695e-05
441 1 77.5549 35.0294 81.499 3.19187e-05 -1.78743e-05 -1.58535e-05
444 1 77.4083 37.8498 82.8229 7.7237e-05 0.00014478 4.3028e-05
182 3 79.7745 34.3121 76.3968 0.000286246 -4.5511e-05 -1.10174e-05
445 2 75.6762 35.7187 83.2465 0.000139087 -2.5639e-05 -0.000177988
730 1 80.248 31.8495 85.7164 -0.000189738 7.19189e-05 -0.000173508
396 1 77.7993 30.3669 83.8717 0.000388256 -1.71853e-05 -0.000366609
397 1 76.1002 33.0063 83.4645 -0.000113033 7.34193e-05 4.75965e-05
452 2 78.6837 33.1514 83.952 7.19609e-05 0.000477576 0.000271626
715 1 76.1606 30.6394 89.056 -5.7039e-05 -8.30395e-05 0.0002397
716 1 76.0298 29.4226 86.3249 -0.000260244 -0.000290754 0.000236941
717 2 78.8272 29.728 86.5448 -0.000206612 0.000291649 0.000453155
719 1 77.2516 32.1659 86.2893 0.000335521 -0.000150959 0.000283281
721 4 77.023 33.4431 88.8886 -5.96357e-05 -9.34291e-05 8.72729e-05
724 1 80.5261 29.0233 84.4886 0.000285817 0.000440418 0.000247317
723 3 78.6961 31.1894 88.4779 8.01652e-05 8.16994e-05 0.000630818
1070 3 80.3361 29.9571 89.8975 0.000180436 0.000513855 -0.000264208
778 2 79.5861 36.4679 86.9685 0.000586476 -0.000280578 5.2186e-05
720 2 79.0135 34.0651 87.1981 -0.000310741 8.76316e-06 -0.000352577
773 1 76.8209 36.372 87.9924 0.000279953 0.000130487 -9.30812e-05
777 2 78.5516 38.2255 88.5675 0.000713132 0.000214025 -5.42923e-05
775 1 75.8452 37.6805 85.481 0.000423056 0.000180569 0.00011268
774 1 77.9205 35.5171 84.9532 0.000383059 0.000308185 9.69615e-05
1126 1 79.3195 35.5972 89.741 0.000261262 -0.000320798 -0.000287699
1073 1 78.8586 32.568 90.9155 -0.00055118 -0.000306329 0.000806898
1066 3 76.2217 31.9925 91.4077 -0.000612468 -0.000646888 0.000174044
1067 1 76.5393 30.101 93.3157 0.777864 -0.19289 0.00453175
1068 1 76.7714 33.1304 93.9635 -0.102513 0.367924 -1.83092
1069 3 78.041 30.092 91.0625 0.000530411 -0.000396697 0.000171585
1071 1 79.6724 29.6665 95.0899 -6.57136e-05 -0.000425695 0.000394158
1407 4 77.1317 29.7236 96.3288 0.067525 -0.276283 -0.207459
1409 5 78.3746 32.1265 96.1635 -9.74343e-05 -0.000546804 -0.000285192
1121 3 78.826 31.6075 93.4618 8.14865e-06 -0.000486275 -0.00023809
1464 1 80.667 36.4775 94.6869 -0.000759845 -0.000266938 0.000181528
1125 2 79.8719 36.7989 92.1172 -0.000251075 0.000273308 -0.000385411
1456 1 78.8151 34.9618 96.3595 0.000247739 0.000440017 -9.02403e-05
1461 3 78.6329 37.8176 95.7528 -0.000423818 9.54425e-05 -6.08286e-05
1116 4 76.7828 34.8081 91.3098 -0.000110564 0.00021798 -3.86198e-05
1459 3 76.4198 36.531 96.0725 -0.127775 0.202495 0.343999
1457 2 76.2049 33.8818 96.2837 -0.188856 0.73328 0.776534
1119 1 77.5925 36.1968 93.7669 -1.59641e-05 -0.000179532 5.11528e-05
1122 2 79.3437 34.3787 92.855 0.000969698 0.000517918 -0.000588728
1123 1 77.2072 37.8055 91.1957 0.00025202 6.40337e-05 -0.000384941
1408 4 78.9252 31.1043 99.2026 -0.0096327 0.472214 -0.113961
1411 1 80.2268 28.9839 98.1093 0.446658 -0.481681 0.183634
1460 4 77.4891 35.7236 98.677 0.51518 0.427592 -0.269787
1730 2 79.5779 38.1306 100.965 0.401117 0.0591393 -0.418632
1458 4 79.845 33.7715 99.3985 -0.431992 0.336111 -0.253325
1462 1 80.254 37.6719 97.9421 7.6922e-05 9.47958e-05 -0.000562245
51 1 78.4847 38.682 71.1702 0.474293 0.151419 -0.254246
52 1 76.3966 40.5321 72.1026 -0.0541469 0.749471 -0.561253
53 1 78.2671 42.79 71.4386 0.132453 0.898637 0.425447
54 1 78.8011 40.8255 73.6076 0.000144424 -8.80517e-05 5.40775e-05
55 1 77.7818 42.9711 75.5818 2.59392e-06 -4.72704e-05 0.000175767
232 1 80.647 41.821 75.6105 7.50272e-05 -3.07118e-05 -0.000169628
222 3 76.4788 40.67 74.903 0.000182315 1.09598e-05 0.000125939
58 2 79.8361 40.9001 70.7218 0.829311 0.0616202 0.15785
225 1 78.3184 39.3215 76.3436 -0.00016455 -8.37888e-05 -0.000128266
257 1 75.6238 46.6588 74.9122 -0.21581 0.966443 0.379763
81 3 75.8016 43.3492 71.9943 0.141923 -0.0359191 -0.345604
82 1 77.5956 45.5629 73.4849 -0.674373 -1.48314 1.9579
83 5 79.0409 45.7224 71.5254 1.71596 0.517306 -2.78547
84 5 79.5214 47.9968 73.2865 -0.792566 -0.29333 -0.0743026
86 2 79.6135 43.689 73.6426 0.000158885 0.000215709 0.000122901
263 2 79.6036 45.3892 75.4038 0.00041768 0.000226559 -0.00011167
266 2 78.3982 47.6133 75.431 -0.163163 -1.45112 0.786284
498 4 79.4649 40.271 82.8692 0.000307704 0.000305628 0.000195433
492 5 76.6803 38.9038 78.813 -0.000173539 0.000246581 0.000423491
227 4 79.0301 39.8317 80.2626 0.000189142 -0.000157505 0.000234323
536 2 77.9912 42.8384 82.8742 0.000268819 0.00027098 -0.000466826
494 1 75.6024 39.6529 81.3831 -0.000415033 0.000269246 8.59347e-05
495 5 77.1449 41.8828 80.6039 0.000434575 0.000214479 -0.000200999
228 4 80.3925 42.4136 80.9593 0.000417961 -0.000188006 0.000121746
264 4 78.4455 41.5317 78.1479 0.000268799 -0.00053547 4.41596e-05
220 4 75.7639 41.538 77.7641 0.000213404 0.000251962 -0.000347703
540 1 77.0116 45.7751 82.5213 0.000293055 0.0002636 -0.000331028
265 1 80.1235 43.7995 77.8617 -0.000135202 1.44905e-05 -7.20225e-05
260 1 77.2646 45.4617 77.1034 0.000311172 -8.08588e-05 6.43988e-05
535 1 75.5352 44.055 79.5038 0.000818464 0.000222061 -0.000202837
545 1 78.4906 44.5464 80.2189 0.000225991 -8.83595e-06 0.000228465
544 2 78.8068 47.2118 80.9346 -7.76859e-05 -4.25547e-06 3.39562e-05
542 1 76.373 46.9659 79.5927 3.29545e-05 -6.82891e-05 -0.000187449
267 4 79.3318 46.9635 78.1309 3.92776e-05 -6.72933e-05 0.000230902
547 5 79.9711 45.4997 82.7658 5.51291e-05 -7.33246e-06 -0.000103462
829 2 79.4307 40.5836 87.9757 0.00030475 -2.68802e-06 0.000922423
496 1 76.7159 40.5004 84.1073 -0.000282598 0.000521868 0.000191077
776 1 79.0721 38.6075 85.4503 -6.20217e-05 -2.34507e-05 0.000361563
824 1 77.1245 40.4663 89.6386 -0.000220855 4.06298e-05 -0.000675316
825 2 77.0711 39.5654 86.9488 0.000176026 -0.000604487 -5.52165e-06
826 3 76.0813 43.035 84.9188 -6.41108e-05 0.000466337 -0.000139417
827 1 77.1688 42.1994 87.2403 0.000571957 0.00049165 -0.000617077
828 3 78.779 41.4794 85.3254 0.000853691 -0.000239806 -0.000186081
1228 2 78.2865 43.135 89.5212 0.000111009 -1.67285e-05 -0.000712115
830 1 80.0964 43.0993 87.1467 0.000726907 -0.000257653 -0.000168279
502 1 80.6462 42.8778 83.9792 5.798e-05 -4.09519e-05 0.000214607
883 3 77.1489 47.9 84.6453 0.000265365 0.000336289 4.68175e-05
1229 1 76.8011 45.9178 90.011 -0.000157248 0.000219567 -0.000344625
886 4 79.7586 45.9606 88.8434 -0.000447652 0.000301055 0.000171296
885 1 79.8385 46.7109 85.79 -6.30127e-05 7.88991e-05 -6.40986e-05
879 1 75.6647 45.7403 85.0674 -0.000340156 0.000319143 0.00039003
884 1 77.2241 47.4295 87.2851 -0.000176367 0.000343982 -0.000401316
882 2 77.768 44.8263 87.6344 0.000200337 -3.03101e-05 -0.000468474
880 1 78.3196 44.3917 85.0358 -0.000122236 -0.000396733 -9.01383e-05
543 2 79.2615 47.991 83.5006 4.76971e-05 8.22826e-05 -0.000114185
1170 1 75.9567 38.7777 94.3233 0.0263767 -0.888951 -0.314658
1173 3 77.258 41.2521 94.5957 -0.000123703 0.000138179 -0.000267457
1174 2 76.5554 40.3674 92.2513 -0.000226912 -0.000165162 2.20586e-05
1176 3 76.7483 43.1751 93.3246 0.000198834 -0.000436642 2.68115e-05
1177 1 78.749 41.8671 92.1012 -0.00125007 0.00033814 -0.000504849
1179 1 79.9093 39.211 90.671 0.000308031 0.000393066 -0.000255015
1180 1 78.9286 39.1994 93.5551 -6.77443e-05 0.000333783 -0.000232305
1509 1 79.014 40.6535 96.4401 -0.000160354 0.00050848 -0.000332645
1225 1 75.8431 43.1119 90.8311 0.000337538 0.000242659 -0.000209546
1563 1 79.0379 43.5109 94.5997 -0.000291471 -0.000998268 -0.000494614
1566 3 80.1892 45.2964 96.5627 0.000324212 0.000293661 -0.000121719
1235 4 79.9871 46.2653 94.1736 0.000200768 -0.000290529 -0.000170005
1561 1 77.6384 45.7883 95.8975 -0.502135 -0.0769618 0.51757
1558 1 75.7884 43.3887 96.0119 1.06641 -0.509765 -0.925862
1226 3 77.3811 45.4711 93.2919 -2.97503e-05 0.0004877 -4.52597e-05
1227 1 75.8169 47.4049 92.3476 0.438185 0.538483 0.0917566
1234 1 79.1785 44.8295 91.4922 -0.000308654 0.000338504 -6.7131e-05
1231 2 78.5458 47.4881 92.3109 0.000120669 0.000167544 -0.000295168
1507 1 77.3798 38.7904 97.7621 -0.64763 -0.209321 0.200566
1510 5 77.0125 41.7949 98.4994 0.10228 -0.426549 -0.442653
1512 2 79.3795 40.5358 99.2421 0.585029 -0.20712 0.0040121
1511 1 79.7803 43.1898 100.303 -0.112243 0.216087 -0.144838
1774 5 80.5317 40.8216 102.174 0.186249 0.246733 -0.230979
1567 4 80.4872 47.7911 97.3428 -0.0102922 0.626667 -0.393493
1560 2 77.0632 44.5566 98.6155 0.164402 0.28616 0.164034
1562 1 79.5329 45.9198 99.0612 0.35015 -1.51767 0.0161686
1559 2 78.4006 43.3734 97.09 -0.000284638 0.000168973 -3.74515e-05
297 1 78.7864 50.2338 74.8007 1.63634 1.65077 -1.10269
295 3 75.4739 49.6836 79.4775 1.47876 0.27369 -0.467793
296 4 76.6843 51.6698 78.207 -0.771961 0.417385 0.329486
299 1 76.8956 49.4007 76.4022 -1.17984 -0.0813072 1.89396
300 1 79.2866 51.6468 77.48 -0.179644 -0.471795 1.15284
585 1 77.258 51.5207 81.1831 -0.511382 0.333966 -0.947202
588 5 80.5095 49.0791 81.5712 0.000130457 -3.55882e-05 5.24678e-05
590 1 80.0771 51.6449 80.7248 0.000201185 0.000134133 9.42513e-05
582 1 76.8384 48.7852 82.0378 -4.57384e-05 -0.000151767 -0.000189132
301 1 78.2892 49.3884 79.26 -0.000134179 0.000358227 -0.000157656
619 2 78.9804 53.6416 82.2296 -0.495485 0.116829 0.249124
325 3 79.3008 53.8008 79.3854 0.0446257 -0.410595 0.14374
584 4 76.2669 52.862 83.2548 0.31362 0.115982 0.648844
586 1 75.9821 50.3179 84.6153 0.430633 -0.0595877 -0.010349
587 5 78.6374 50.7514 83.5355 2.1252e-05 -9.19621e-05 0.000188429
928 1 79.0462 49.6112 86.1561 0.000748579 0.000221535 0.000230498
929 1 76.706 50.315 87.8162 -0.255439 -0.547152 0.406101
930 2 77.9648 52.0966 86.4699 0.211764 0.101834 -0.282161
931 1 79.9397 51.0524 88.7445 0.00060331 0.000416277 0.000447038
927 2 75.8855 48.7291 89.892 -0.54553 -0.340029 0.122311
1278 1 78.524 48.6469 89.8588 3.1243e-05 0.000526042 0.000132346
932 2 80.6714 48.3531 88.0718 0.000224409 0.000462311 0.000430617
592 3 80.6461 52.2566 83.7199 -0.000334693 -0.000137889 8.77408e-06
968 4 79.3338 53.9744 88.319 0.0665539 -0.477984 -0.0590537
967 1 79.0192 53.9899 85.0841 -1.46295 -1.13158 -0.0216427
1277 1 77.5592 50.0133 92.5868 0.920995 -0.99972 0.270576
1280 2 78.1763 51.6763 90.7217 0.00327086 0.5638 -0.58296
1281 2 80.1833 50.2835 91.3945 4.01339e-05 0.000244836 -1.54132e-06
1282 1 80.0215 52.1316 93.6915 0.272964 -1.38664 0.0490672
1608 3 80.4853 50.2267 95.9654 0.0676412 0.156683 0.220741
1276 2 78.2469 48.2725 94.8179 0.0875237 0.238611 -0.353732
1321 5 80.3327 53.5679 91.3195 0.00638989 -0.388728 -0.157005
2 1 83.2329 27.4168 74.0469 0.415298 0.456308 -0.233746
3 1 85.7646 28.0728 73.0181 0.153506 0.453489 -0.394579
113 1 82.1029 25.5922 75.7129 0.169206 -0.725815 1.05529
329 1 81.9576 22.0105 82.4069 -0.971411 -0.903125 2.43175
331 1 83.5537 22.7206 80.5646 2.15766 0.772171 -1.67875
361 1 84.4141 27.6411 83.1339 -0.000198534 -0.000553321 -0.000149793
358 1 83.4934 27.594 80.2304 0.000339851 0.000103701 -0.000215755
115 4 84.8307 24.0573 76.925 -0.00831596 -0.160372 0.128944
116 1 82.7603 25.1262 78.666 0.276629 -0.0678598 0.162093
117 1 84.4173 27.1638 77.3321 -6.7977e-05 -0.00016598 -0.000105857
355 2 82.808 25.1584 81.3819 5.19477e-05 0.000143914 0.000146041
112 2 85.5527 24.263 79.8047 -0.71753 0.845071 0.173354
360 1 85.4735 24.9819 82.33 0.000226759 0.000156759 0.000156526
114 3 81.9141 27.6657 77.9209 -5.59367e-06 1.40708e-05 -0.000236801
357 1 81.2933 27.1544 82.3698 -7.94666e-05 0.000170791 -9.53357e-05
330 5 84.1938 20.2186 84.3126 0.76058 -0.394831 -0.40131
332 3 84.8641 22.4964 83.3952 -0.843007 0.647499 0.4234
640 1 82.3535 21.8927 87.8872 0.201274 0.53841 0.0675811
641 2 82.8669 21.9024 85.3962 -0.756583 1.3704 -0.581043
643 4 84.6598 20.1688 87.5562 0.103298 -0.306331 -0.727264
646 1 85.3825 22.6384 86.2048 -5.10937e-05 0.000265351 -0.000131278
642 1 84.5557 23.0538 89.9688 -3.99529e-05 -0.000239049 0.000263854
675 3 84.0726 24.5048 87.5872 -0.000238939 0.000423268 -7.42606e-05
679 2 82.2157 24.2256 89.4628 0.000650619 -0.000572445 -0.000509553
356 1 82.7778 24.47 84.0267 -0.000268037 -2.35075e-06 0.00034237
676 4 82.8276 26.5703 88.7796 -0.000809338 0.000420479 0.000194975
683 5 85.0748 25.3386 85.2388 1.55251e-05 -0.00013004 -0.000525448
677 1 82.9627 27.3123 85.7179 -0.000198951 -0.000152738 -0.00019499
682 3 85.428 27.0431 87.1106 -0.00158728 -0.00100619 0.000104914
674 1 81.3866 24.6364 86.8878 -0.00061911 0.000195287 -0.000295162
678 4 85.832 25.8721 89.3213 6.70801e-05 -5.98792e-05 -0.000164351
991 2 82.4356 21.4297 94.8306 0.234909 0.444969 0.957119
993 1 81.6585 21.8982 90.6114 -0.239391 -0.36425 0.742512
994 1 84.085 20.0383 90.257 1.17541 0.730801 -0.536257
997 1 83.1883 20.0589 92.7879 0.419306 0.536903 0.6041
998 3 85.2652 21.8511 92.2963 0.000133512 0.000218338 0.00047116
1000 1 83.0093 23.2023 92.9228 0.000357324 0.000254146 -9.40959e-06
1347 1 84.709 22.8042 96.9791 -0.223057 0.238598 -0.772107
996 1 85.6786 20.954 95.0674 -0.494073 0.802757 0.313761
1374 3 84.5336 24.623 94.5422 0.000221884 0.00038075 -0.000675294
1024 2 81.0544 25.506 91.0716 -5.07246e-05 -0.000246379 -0.00073733
1025 1 81.5287 26.0193 93.5991 0.000189812 -0.000247584 -0.000752949
1415 1 82.502 28.4229 96.3027 0.000252846 -3.51561e-05 0.000459194
680 1 85.5555 28.1041 91.3784 -0.000481764 0.000183661 -0.000219317
1075 1 82.3662 28.271 91.2099 0.000408488 0.000804112 -3.69614e-05
1031 1 83.9114 25.5833 91.5432 -0.000561401 -0.000176499 -0.000338339
1367 1 81.722 24.035 95.7256 0.771559 0.126013 0.064454
1371 2 83.5445 25.8985 96.4466 0.000225519 -0.000111064 3.41202e-05
1074 1 84.0284 27.4534 93.9922 -0.000340101 -0.000122399 -0.000115982
1368 2 83.481 24.3411 98.6212 -0.422704 0.389556 0.427705
1369 1 81.9816 26.4738 99.0314 0.31578 1.3307 -1.10367
1662 1 85.05 27.117 100.655 0.0570748 -0.817505 0.278601
1372 1 85.9276 25.3725 98.1012 0.000296622 0.000416353 0.000436492
1412 2 84.2755 27.6947 98.2247 0.000148401 -0.000189295 5.26114e-05
10 3 80.9633 30.3521 73.8641 -0.420144 -0.648994 0.396698
11 1 83.4682 30.2683 73.2432 -0.441977 0.535663 1.96468
12 1 81.1159 32.1646 72.0207 0.558682 -0.580157 0.0450067
13 3 84.31 29.8351 71.0459 1.0826 -0.570156 -1.22689
14 1 84.3224 32.4499 71.6688 0.517876 0.673731 -0.098586
144 1 82.6193 29.5873 76.0918 -3.3937e-05 -0.00010004 0.000166759
145 2 82.1581 32.3326 74.6731 -0.000157466 3.83963e-05 0.000155894
36 2 85.5943 33.2087 74.1018 5.85279e-05 -5.21925e-05 0.00010611
151 2 85.2798 28.9808 75.6303 0.000336968 -0.000304811 3.86529e-05
17 2 85.8859 30.7693 74.1517 0.000118517 -0.000332736 0.000150061
146 1 84.4191 31.9681 76.1555 0.000145656 2.81398e-05 -0.000186452
34 1 85.233 35.3785 72.0698 -1.40666 -0.10027 -0.0691362
28 2 83.2408 34.061 73.4849 -0.000205052 -0.000264261 4.96687e-05
188 3 82.1922 34.7647 75.6696 -4.95298e-05 -0.000360715 -0.000158559
31 1 81.7863 34.8223 71.0925 -0.0999072 0.160657 0.742015
32 1 82.5771 36.6815 73.5953 -0.000403796 -0.000216788 -2.91003e-05
33 4 82.9813 36.7337 69.7481 0.753314 0.372276 0.0549534
35 4 85.7305 37.7225 70.2118 0.284841 -0.100086 0.0342716
189 1 85.0003 35.6603 75.0988 4.8899e-05 -1.99863e-05 0.000115099
143 1 83.0506 30.3953 78.9983 2.36517e-05 -9.68502e-06 -2.1595e-05
404 2 85.3927 29.5043 80.8789 0.000204256 0.000149952 2.36763e-05
405 2 84.0831 31.7845 81.3004 0.000472284 6.57816e-05 0.000144568
147 2 85.4095 29.5251 78.2062 -0.000244538 -0.000502471 0.000176661
401 1 82.3926 29.9092 82.0908 -0.000121096 3.34576e-05 -0.00038048
149 1 85.5025 32.2648 79.0419 0.000236876 0.000114226 -0.000212133
142 1 81.473 32.4679 77.28 -0.00020792 5.18634e-05 -2.09864e-05
141 3 81.0629 28.7641 79.9357 0.00019261 -4.29649e-05 -0.000207581
409 3 84.9504 30.2176 83.1906 0.000376353 -0.000265881 0.000204258
458 4 85.8877 37.7746 79.9452 0.000340225 0.000100317 -8.08147e-05
148 1 82.5372 33.5767 80.0048 -0.000215784 -0.000172583 0.000124458
451 4 83.8865 37.4035 82.7773 0.000515083 -0.000446255 0.000195814
195 3 85.8328 35.054 79.4653 -9.10587e-05 -0.000121404 -0.000301706
454 1 84.9917 34.4806 81.9612 0.000194143 0.000167125 -1.65254e-05
192 3 85.5194 36.758 77.5359 -0.000308682 -0.000135504 -0.000226294
447 3 82.3936 35.3724 82.2354 -0.000102817 -9.18091e-05 0.000112854
186 3 81.3448 35.3682 77.9961 0.000436449 -7.51133e-05 -0.000101426
191 5 83.9311 34.4664 77.5985 -7.16147e-05 -0.000226479 -0.000178576
193 1 83.3479 36.4342 79.7718 0.000288114 -4.82556e-05 -0.000105571
190 1 82.9412 37.2552 76.7065 0.000134168 -0.000207623 3.82451e-05
731 2 83.5221 33.31 88.9232 -7.25034e-05 -8.54845e-06 1.59254e-05
403 1 82.6142 32.7355 83.341 5.7221e-05 0.000195338 -0.000110956
1076 1 80.8575 32.6314 88.6759 -0.000458197 0.000383781 -2.90476e-05
725 2 82.9477 30.3593 84.8572 0.00032314 0.000243783 -0.000388553
726 5 82.9016 32.8611 86.3539 -0.000284222 -0.000146042 -0.00014327
727 4 84.1376 28.7747 88.7075 -0.000516591 0.000283744 -0.00025802
728 1 81.9302 30.0586 87.4388 0.000193334 0.000528784 -0.000531128
729 1 85.1617 31.5022 87.7684 2.66395e-05 0.000650319 -0.00012874
408 1 85.3477 29.2916 85.7381 -0.000255752 -0.000603333 0.000408027
460 1 85.3009 32.3317 84.7034 0.000289306 -0.000188572 8.50301e-05
718 5 82.9005 30.9468 90.0557 5.63499e-05 0.000466906 -8.60714e-05
835 5 85.2625 37.4019 85.3398 0.000201069 -0.0001647 0.000111414
780 4 82.4512 36.989 85.6766 0.000111399 -5.29245e-06 0.0005557
782 1 84.8265 35.0197 87.1082 0.000325022 -0.000198859 0.000386828
779 1 81.8829 35.3949 88.0636 0.000292038 0.000257897 0.000110183
781 1 84.1843 37.8078 88.2694 9.57431e-05 0.00063114 0.000254648
453 1 80.9047 34.6929 85.0103 0.000380654 0.000353616 -0.000415437
449 2 83.7629 34.9851 84.4918 0.000456302 -0.00025683 0.000118655
1072 1 81.1475 31.0776 92.3705 -0.000111089 4.22726e-05 -0.000409412
1410 3 81.7163 28.7621 93.7217 0.000340754 0.000235051 -6.77054e-05
1077 1 84.15 30.2373 92.8569 9.37163e-05 0.000127503 8.45679e-05
1078 2 84.8515 29.9737 95.5232 0.000330049 0.000575398 0.00061737
1413 3 82.3552 30.8415 95.0087 -0.000282201 -0.000138218 0.000271955
733 2 85.6357 30.5948 90.292 -0.000372382 -0.000393603 -0.00078927
1124 1 81.0322 33.298 94.5879 -0.00115019 -0.000396922 0.000499408
732 4 84.5064 32.8009 91.2454 -0.000137024 -0.000197286 0.000391681
1128 5 83.8676 32.8509 93.8734 -0.000963537 5.62461e-07 0.000346125
1423 1 84.0212 32.3707 96.7538 -0.00113828 0.000461503 -4.33052e-05
783 2 81.8272 36.9604 90.4431 0.0006209 -0.000136794 1.51003e-05
1130 1 82.9796 35.6821 93.0202 -0.000426335 0.000165291 -0.000221356
1132 1 85.6629 36.7924 94.8685 0.000250541 0.0005003 0.00167129
1469 1 83.0321 37.5512 96.0901 -2.07005e-05 -7.04189e-05 -0.00101954
1133 2 83.6717 34.8997 95.4321 0.000562104 0.00043735 -0.000234862
1134 1 84.9374 37.9356 92.0129 -0.000273777 -0.000428059 0.00084695
1127 5 81.5729 33.9711 91.2016 0.000216078 -0.000176349 -0.000111165
1131 1 84.1809 35.5586 90.2692 7.33935e-05 -0.000188929 0.000453749
1182 2 81.9818 38.126 92.8402 -5.04236e-05 0.000386009 -3.5953e-05
1414 1 83.1077 30.1829 98.591 -1.3704e-05 7.19061e-05 1.34803e-06
1417 4 84.7837 32.4895 99.507 -0.000135407 -0.000461958 0.000314092
1689 1 85.5188 29.9276 100.644 0.00047187 1.50249e-06 0.000482266
1691 4 81.2406 31.6977 101.793 0.831597 0.133092 -0.283404
1692 2 82.5243 28.9261 100.771 0.146958 -0.224278 0.280773
1693 1 84.3277 31.07 103.02 0.255981 0.406171 -0.391467
1419 3 85.6885 29.6977 97.9558 0.000262898 0.000354074 -2.92073e-05
1467 4 82.3113 32.9733 99.7045 -0.000340685 0.00071398 0.000381474
1416 1 81.0041 31.8242 97.2153 -0.000480972 -0.000376011 0.000639717
1740 4 85.7997 35.2392 99.9678 5.35318e-05 0.000417989 6.80961e-05
1732 5 83.8305 34.0552 101.82 9.94328e-05 -7.41565e-06 0.000225118
1463 4 81.8487 36.0185 99.9507 -0.000299183 -0.00047868 -0.000437963
1470 2 84.7794 35.3277 97.6165 -0.00101527 -0.000869115 0.000632023
1734 1 84.0621 36.9529 101.587 -0.000736268 -0.000445813 -4.6677e-05
1466 1 81.8057 34.9012 97.3214 -0.000238718 -0.000728992 -0.000190716
1465 2 83.6813 37.5932 98.7149 -0.000980099 -0.00106247 0.000483472
1731 4 80.8446 35.0474 102.096 0.675382 0.017356 0.0726654
1735 3 85.6314 37.6173 103.775 -0.000900904 -0.00038592 -0.000462441
1694 3 82.9744 33.1203 103.974 -0.296912 0.0488169 0.124239
1695 2 85.57 33.4369 104.311 0.434715 -0.166811 0.252903
1733 1 83.7992 35.7104 104.354 0.476544 0.426967 -0.318503
57 5 80.9936 38.466 70.1973 0.866488 -0.138478 0.110554
59 3 83.6625 43.1372 72.3315 -1.25457e-05 -8.96875e-05 0.000108184