ITEM: TIMESTEP
277
ITEM: NUMBER OF ATOMS
851
ITEM: BOX BOUNDS ss ss ss
7.7352745201999994e+01 1.0810767479800001e+02
3.1858355509999999e+01 6.2310144489999999e+01
8.7481344916828334e+01 1.1782379419706096e+02
ITEM: ATOMS id type x y z fx fy fz
1 1 83.9419 36.8479 92.7223 0.571126 -1.0417 -1.43544
2 3 88.4454 36.0948 93.3921 0.356811 -0.647085 1.53361
3 1 92.4449 36.4687 92.5685 1.12618 0.799798 -0.40895
4 1 80.0388 39.6131 92.7192 0.340322 -0.823011 0.857913
5 2 81.1851 37.9037 91.3332 0.21243 -1.30102 -0.118552
6 2 83.0548 39.5585 93.026 0.0014179 -0.000193158 -0.00316966
7 1 81.5623 41.1424 91.0315 1.094 0.848932 -1.06239
8 1 83.3479 39.0476 90.6032 1.74918 -0.542528 -0.960017
9 1 85.8097 40.5102 90.489 -0.114193 0.52254 0.401859
10 3 85.6719 39.7665 93.0896 0.000723214 -5.20144e-05 -0.000156187
11 1 86.3187 37.5911 91.6331 0.43537 -0.375063 0.421842
12 1 88.3212 39.4018 92.595 0.00018836 0.00014542 -3.34476e-05
13 1 91.3187 41.0172 89.4526 0.832609 1.21818 0.187264
14 2 87.7735 38.7345 89.8006 1.04623 0.285454 -0.220361
15 2 89.3704 36.9553 91.6659 1.03874 0.675431 -1.80422
16 1 91.0049 39.1033 91.3831 0.651488 -0.357376 1.07982
17 1 88.6408 41.4621 90.1102 -1.74633 -0.608581 0.418147
18 3 93.7902 38.4694 91.6287 0.614383 0.387108 -0.645858
19 1 93.6862 41.0926 92.2496 0.0726329 -0.504381 -0.414231
20 1 96.4835 39.5802 92.7204 -0.90189 0.671153 0.933831
21 1 81.5076 46.9025 90.6519 -0.302636 0.588004 1.60031
22 4 80.832 43.9724 89.9129 -0.160109 -0.0242634 -0.824921
23 1 79.0484 42.4583 91.6084 0.167664 0.286968 -0.382019
24 1 82.4947 43.7402 92.1427 -1.69324e-05 -0.000158048 0.000281271
25 1 79.7479 45.4248 92.2613 -0.171793 0.214433 -0.147614
26 1 82.8877 45.8965 88.7733 -0.114564 -0.732661 -2.12365
27 2 86.0661 42.7223 88.5081 1.94287 0.167114 -0.21094
28 1 83.8018 42.9956 89.4775 -1.14722 -0.465257 0.816586
29 2 84.1887 41.7086 92.5667 0.000438523 -7.75316e-05 -8.26239e-05
30 2 86.0243 43.1246 91.1615 -0.000384815 -6.1585e-05 0.000257067
31 1 87.2048 45.1638 92.7656 -0.0002068 0.000701366 -2.86186e-05
32 1 84.6289 45.4464 91.0691 0.000315135 0.000997619 0.000807121
33 3 87.1142 44.9317 89.8639 -0.000305303 -0.000230646 -6.42658e-05
34 1 85.3579 45.4438 87.8831 1.92161 -0.390563 -0.156064
35 1 86.3318 47.6482 91.535 -0.00157796 -0.00125199 0.000161879
36 1 89.2742 44.1141 91.179 5.98115e-05 8.29706e-05 -0.000229603
37 3 89.753 43.3019 88.7417 0.424399 0.88566 -0.711387
38 5 89.3086 46.457 94.0927 -0.000504644 7.40751e-05 0.000431776
39 1 91.8139 43.2888 92.2207 -7.31627e-05 -2.39778e-05 -0.000255321
40 2 89.9281 41.5212 92.4472 -0.000481253 0.000377547 0.000170866
41 1 88.2563 45.6108 87.4848 0.932115 -0.886601 0.540584
42 1 91.3707 45.5583 89.5603 -0.193553 -0.243751 0.0197185
43 4 91.5441 46.2043 92.4965 -0.000673269 3.21381e-05 -0.000150261
44 4 94.1233 44.646 92.5113 -0.000255269 0.000270734 0.000331754
45 3 92.8524 43.1972 89.8918 0.100118 -0.0613987 -0.359098
46 4 95.9128 42.5142 91.3868 0.318653 0.324807 0.0210361
47 1 96.9207 45.2996 92.7491 -0.431187 0.679134 -1.72108
48 1 94.5804 45.2293 89.7329 -0.396894 0.432639 0.571442
49 1 94.0926 47.3228 91.7664 -7.79964e-05 -0.00011434 -0.000469879
50 2 99.6323 44.7318 92.7583 0.385291 0.413899 0.748027
51 4 80.5431 36.7249 96.5998 -0.00359131 -0.0781134 0.324019
52 1 84.5149 35.3509 95.6503 -1.05607 -0.310841 -0.482285
53 4 83.0801 34.9454 97.7203 -0.680489 -0.509721 1.0381
54 4 87.1384 33.6623 95.2351 0.214152 0.308534 0.561945
55 2 86.551 36.1065 94.5397 -0.186493 0.664425 -0.462446
56 2 86.4244 36.2507 97.1729 -5.61755e-06 0.000317509 -0.000224506
57 1 89.0634 33.1521 98.0619 0.0140295 0.940794 2.70162
58 1 88.94 35.7119 96.2808 -0.000237729 -8.33423e-05 -0.000223186
59 1 90.5285 36.3723 98.8561 -0.000317431 -0.000130868 -0.000548323
60 1 86.4278 33.9799 98.7618 1.96777 -0.313149 -1.74665
61 3 90.2143 33.1815 96.0059 0.962601 0.222838 -1.35383
62 1 92.2491 33.8814 98.6605 -0.158487 0.842461 0.418079
63 1 91.058 34.8523 94.1668 -1.29936 -1.11515 -0.129425
64 4 92.9391 33.0744 96.2863 -0.173959 -0.346021 -0.500824
65 5 91.9633 35.8475 96.4951 0.00014377 -0.000146879 5.27126e-05
66 4 94.3162 34.4571 94.7002 -0.0350296 0.286954 -0.461646
67 3 94.349 36.58 95.953 0.000253849 -0.00034303 0.000126396
68 4 95.3298 34.2652 97.9952 -0.834714 -0.761263 0.247509
69 1 99.8964 36.539 98.6733 0.450194 0.321725 0.846761
70 1 96.784 36.0735 96.6289 -0.038922 -0.574863 0.0287413
71 4 98.3821 34.041 98.7056 0.519382 0.522371 -1.11699
72 1 95.6602 36.7723 93.5411 -0.530356 0.251895 -0.115527
73 2 79.489 37.7179 98.6723 -0.0230178 -0.440744 0.422013
74 3 79.852 39.0752 95.2386 0.870127 -0.362216 0.155038
75 1 78.1048 41.085 93.8645 -0.592691 -0.167088 1.31451
76 5 78.248 40.2059 96.7094 -0.990973 -0.149605 1.04924
77 1 80.2885 41.8655 96.0605 0.000516207 -0.000768028 -0.00103124
78 2 81.0528 41.6958 99.4201 -0.00015453 5.85064e-05 0.000477367
79 1 81.1796 39.4659 97.9 0.000318926 0.00070071 -0.00123907
80 1 81.9437 37.2363 94.358 -1.75134 0.660541 0.980407
81 2 83.0989 37.5202 97.0671 -0.00015438 0.00055891 -0.000110586
82 1 82.4733 40.0539 95.3843 -0.00196474 0.00181865 0.00338633
83 4 87.4765 40.3826 98.0912 7.40358e-05 5.62178e-05 -0.000404847
84 1 83.5838 41.4504 97.8386 -4.18045e-05 3.97464e-05 -0.00102996
85 3 81.1247 41.9027 93.5809 -0.000232674 0.000294764 -0.000264006
86 4 85.6554 38.7498 97.5875 0.000192741 0.000342073 0.000146643
87 1 85.5558 41.1327 95.4579 -0.000286139 0.000222107 -0.000516057
88 1 84.7773 38.2333 95.0492 0.000628516 -0.000501089 -0.000132583
89 1 87.6496 38.4257 95.3109 -0.000524362 0.0001542 1.30888e-06
90 2 88.097 37.7608 98.0705 -8.11989e-05 0.000159702 -1.46899e-05
91 1 87.3081 42.1492 93.2538 0.000161663 0.000332247 -0.000115275
92 1 87.9346 42.8005 96.7221 0.000295176 -0.000172839 -0.000660504
93 4 90.849 41.9967 96.8708 0.000478095 -0.000224006 -0.000264529
94 4 89.7124 40.8733 99.3322 9.80949e-05 -0.000105744 0.000401016
95 1 90.0642 39.1161 97.0127 0.000385247 0.000511775 -0.000421745
96 3 93.6026 38.5549 93.9333 0.000205497 0.000348566 -1.97113e-05
97 1 90.4841 37.8221 94.3019 0.000108714 9.23318e-05 -4.39127e-06
98 1 95.0504 40.7291 100.105 0.000272529 -0.000157479 -0.000305725
99 2 88.9272 40.8125 95.0372 0.000266892 0.000337513 -0.000662484
100 1 92.8217 38.5825 96.3545 0.000118556 -0.0003787 -0.000119901
101 4 95.0176 38.3765 98.2552 -8.68336e-05 3.61197e-05 -2.57736e-05
102 1 91.5949 40.5953 94.3243 0.000310304 -0.000700963 -0.000173753
103 1 96.9565 40.6031 97.5821 0.000382128 -0.000326842 -0.000109192
104 2 94.308 40.8141 94.819 0.000377728 -5.66539e-05 -9.20019e-05
105 1 93.7057 41.1689 97.3966 4.39056e-05 -0.0002086 5.11473e-05
106 3 98.4771 37.6415 95.7716 0.809782 1.06914 -0.0626927
107 1 98.9745 42.5453 96.6773 -0.000185455 -0.000134846 -0.00021002
108 1 100.164 39.3815 97.7933 -0.74897 -0.521169 0.0635691
109 3 98.6302 40.1103 95.1361 0.305046 -0.676357 0.67596
110 4 97.7333 38.0902 98.4837 -0.000128791 -0.000391129 0.000548804
111 1 95.9594 38.7863 95.5245 -7.20874e-05 0.000204125 -0.000286787
112 2 96.6061 41.3846 95.0386 0.000301343 5.56874e-06 -0.000244645
113 3 101.312 40.8805 96.1596 0.174629 0.985631 -0.480539
114 2 103.251 39.9435 98.5769 -0.466426 0.87527 0.00015584
115 1 78.3564 42.8224 98.2208 0.626571 -0.224049 1.0546
116 3 78.8398 43.6527 93.8706 1.5622 -0.086075 -0.558304
117 2 77.3562 43.0815 95.3447 -1.41696 -0.0394404 2.0872
118 2 79.3182 44.337 96.3407 -0.000242996 0.000585554 8.64553e-05
119 1 78.3625 46.1575 94.672 -0.211822 0.507206 0.798047
120 1 78.6962 45.976 98.2557 0.183518 -0.479199 -0.745268
121 4 82.8463 46.3205 93.498 6.53445e-05 -0.000261678 3.21145e-05
122 1 81.2677 44.4023 94.6589 -0.000270243 0.000319869 -0.000226834
123 1 81.7916 43.8145 97.6742 -8.75825e-05 -0.000441681 -8.85723e-05
124 2 84.2262 44.6138 98.5952 0.000223115 -0.000246064 1.90799e-05
125 1 84.8933 43.9533 94.0818 0.000270072 0.000525829 -0.000152214
126 3 83.068 42.5994 95.39 -0.000462322 -0.000386477 -0.00037913
127 3 83.4534 45.106 96.0679 -0.000235428 -9.12166e-05 -0.000127582
128 1 84.7738 46.9895 99.4317 0.00027967 -0.000732172 0.000860863
129 1 80.9162 46.5986 96.6852 0.000769828 0.0001623 -0.000188157
130 1 87.2086 45.1337 98.5845 -0.000277572 -0.000146549 -0.000493527
131 1 85.9196 42.4935 99.2815 0.000125347 3.95605e-05 0.000160742
132 3 85.3191 43.5365 96.7159 0.000239139 8.30177e-05 -5.47644e-05
133 1 89.8275 43.6098 94.4489 0.00031534 0.000456046 0.000114527
134 1 89.7748 43.6958 99.243 -5.82722e-06 -0.00022772 -0.000177011
135 4 91.0384 46.4101 99.4213 -2.35224e-05 -1.70322e-05 -0.000450013
136 3 87.2621 45.0136 95.4557 -0.000363294 3.37052e-05 0.000308507
137 1 89.8115 45.5727 96.8733 -2.40187e-05 -3.78184e-05 0.000108345
138 4 92.3109 44.1617 97.7103 -0.000590252 0.000170254 2.64154e-06
139 4 94.6569 43.4429 99.7295 -0.000189304 -0.000354262 -0.000115104
140 1 93.0499 43.2663 95.0191 0.000126138 -0.000177411 6.58219e-05
141 4 94.4479 45.5014 98.0222 -0.000103635 -0.000175269 -0.000570703
142 2 95.5858 43.1638 93.942 -7.95638e-05 -3.29813e-06 3.30956e-05
143 1 94.8986 45.9181 95.1739 0.000273374 7.94332e-05 -5.15543e-06
144 1 98.7388 42.4346 93.9027 0.28539 -0.0394442 -1.56141
145 2 97.5353 43.0634 98.958 -0.000208721 0.000173187 0.00015572
146 1 97.6828 44.7326 95.2988 -0.000202816 -0.000460259 4.98167e-05
147 1 95.6664 43.2334 96.8053 -9.6031e-05 -0.00022144 0.000286057
148 1 99.6242 45.1182 98.5815 0.000223244 0.000423933 -0.000304358
149 2 97.0772 45.4962 97.7696 -9.05518e-05 -0.000109635 4.26446e-05
150 1 101.844 46.3416 94.6013 -0.653355 0.671054 0.202541
151 1 102.563 45.4881 97.5442 0.167717 -0.685238 -0.612088
152 3 100.075 45.1371 96.0206 -2.85294e-05 -0.000432762 -0.000276814
153 1 103.521 42.6509 98.178 0.00070271 0.514011 0.325805
154 1 101.79 43.4025 95.1476 -0.737769 -0.146305 0.778574
155 1 100.798 42.1622 98.6758 0.000419817 -8.50835e-05 0.000253741
156 1 84.1852 34.9653 102.475 0.486558 0.963612 -0.0517879
157 2 86.3162 36.597 102.486 0.000120619 -0.000617722 -0.000186232
158 1 85.0056 36.266 99.5273 -2.13012e-05 0.000384012 -0.000680545
159 1 87.5134 34.2678 102.077 0.00102699 -9.71655e-05 0.000537578
160 5 84.5145 33.2913 100.241 -1.42783 -0.31076 1.46316
161 2 85.9577 32.4779 102.869 -0.522524 -0.312116 0.282921
162 1 82.196 36.6657 99.9495 -0.592862 0.0652621 0.293681
163 1 86.9108 34.1945 105.097 -0.152091 0.183207 -0.407245
164 1 85.2302 36.7384 105.051 -0.949702 0.00815126 -0.697138
165 5 87.8814 36.061 99.9543 -0.000288211 0.000223639 0.000244649
166 3 91.1517 31.8618 103.442 1.70362 -0.179942 -0.294774
167 1 91.6553 34.598 103.174 0.00039256 0.000342381 -5.00909e-05
168 1 91.4276 32.546 100.922 0.149896 -0.362004 0.758055
169 2 88.6567 32.0737 101.274 0.393363 0.113313 -0.275737
170 3 89.6432 34.9798 104.74 -0.000237015 9.02781e-05 -0.000263206
171 1 89.0227 32.4403 104.302 -1.11933 1.21348 -0.121488
172 3 89.9702 34.6604 100.861 0.000441982 0.000477015 0.000464433
173 1 92.9811 35.7141 105.887 0.000106717 -1.00428e-06 -0.00021116
174 3 94.3021 32.7534 101.1 0.195825 -0.269468 -0.266604
175 1 96.1251 36.749 102.288 0.000297877 -0.000204197 0.000168871
176 3 95.3712 35.8093 104.914 0.000326287 -2.61784e-06 0.000396125
177 1 96.3569 34.0603 103.243 -1.05278 -0.492788 2.31061
178 1 93.7473 35.2432 101.174 -0.000233388 -0.000243436 -0.000314864
179 3 93.352 36.4562 98.6745 -0.00115358 0.00058937 0.000535492
180 1 93.8335 32.5482 103.724 -0.378897 1.18513 0.62416
181 1 98.7504 35.7308 103.567 0.000156297 -0.000105348 0.000230078
182 1 97.1438 33.5668 100.868 -0.321619 -0.368551 -1.3861
183 1 101.363 35.6517 104.789 0.784554 -0.362678 0.281983
184 2 100.091 34.3279 101.51 -0.334619 0.287078 0.0654971
185 4 96.0239 36.1826 99.5183 -0.000390878 -5.3e-05 -0.000101723
186 2 98.3296 35.9767 100.754 -5.20966e-05 0.000105596 -9.08298e-05
187 2 99.4077 33.615 105.297 -0.333422 0.542506 0.222271
188 1 101.497 36.6885 102.127 -1.06752 -0.712338 0.335373
189 3 82.8326 41.1922 104.725 0.000282491 0.000131918 0.00036546
190 1 81.9782 39.3913 101.115 -0.203551 -0.0135293 -1.24359
191 3 82.4327 37.2656 102.925 -0.20575 -0.0729389 0.285067
192 1 80.7028 39.8522 103.502 -0.13214 0.143833 1.63479
193 4 78.8638 39.9689 99.6787 0.08875 0.317512 0.116928
194 1 82.6946 37.9803 105.656 0.111538 1.03217 -0.142739
195 1 87.4317 40.9605 101.46 0.000517345 4.14614e-05 0.000210299
196 1 87.0533 38.932 103.513 1.2748e-05 -0.000276576 -0.000363533
197 3 84.4985 40.5779 100.886 0.00101277 -0.000176137 -2.09153e-05
198 1 84.1378 39.4276 103.421 -7.96042e-05 -0.000127655 -0.000233909
199 3 84.2975 37.7044 101.539 -6.28451e-05 -0.00033325 0.000125136
200 4 86.4671 38.5763 100.388 0.000477496 0.000113121 8.38517e-05
201 4 83.8015 38.9335 99.1244 -0.000209861 2.92962e-05 -0.000188048
202 2 88.4265 41.1918 104.202 -0.000221682 -0.000489179 0.000704275
203 5 89.4353 39.2956 105.645 0.000146491 1.32002e-05 -0.000358017
204 1 91.5823 41.0174 104.554 0.000451106 3.73357e-05 0.000632432
205 2 91.1294 37.3667 104.355 0.000355688 0.000754315 -9.8508e-05
206 4 91.6831 37.1623 101.531 -5.53634e-05 -0.000250749 0.000156108
207 4 89.2456 38.5454 100.405 0.000800053 -0.000149364 -0.000181389
208 4 89.9983 39.3284 102.834 0.000570878 0.000783244 -0.000422244
209 1 89.0965 36.597 102.671 0.000521065 0.000643515 0.000154171
210 4 92.2418 41.8954 99.8188 -0.000105538 0.000394021 -0.000190702
211 1 92.1827 38.9923 99.254 -7.60401e-05 0.000397033 -2.08187e-05
212 3 94.2278 40.4175 104.891 0.000492745 -0.000148139 0.000289823
213 4 92.6171 39.8626 102.047 0.000920561 0.00044784 0.0001376
214 2 94.1982 38.0701 100.887 -0.000144906 -0.000198661 0.000353483
215 1 97.0589 37.9982 104.758 0.000429464 -0.000156907 0.000126872
216 3 94.8978 38.3365 106.329 0.000644429 -0.000166421 -5.74087e-05
217 1 93.8002 37.8543 103.809 0.00043552 -0.000254096 0.000231937
218 4 101.147 43.6965 103.005 -0.00013022 -8.09747e-05 -0.000137375
219 1 101.844 39.5124 102.996 0.000279699 0.000310347 -0.000155271
220 1 102.38 38.3729 105.724 0.000114277 -0.000349338 -0.000341254
221 2 100.435 39.8198 100.394 3.72417e-05 0.000185494 0.000352973
222 1 99.3246 41.093 102.75 -9.21922e-06 0.000429675 -0.000208898
223 3 96.6225 38.6742 100.596 -5.22421e-05 2.38768e-05 0.000323427
224 2 99.7842 38.6391 104.481 8.46195e-05 0.000432219 0.000695095
225 1 98.9052 38.2686 101.886 0.000111988 0.000518979 -5.58513e-05
226 5 98.1097 40.7521 100.125 -2.97684e-05 -0.000200158 -0.000332508
227 2 104.128 38.1355 103.304 0.0254164 -0.483787 0.555338
228 1 104.605 40.4055 101.882 0.14404 -0.191288 0.121492
229 3 103.888 40.4432 104.618 -0.000167623 9.89336e-05 0.000100451
230 5 102.438 38.3514 100.339 0.774108 0.251714 -0.786581
231 1 106.346 41.9239 104.632 -0.180394 -0.468938 -0.161213
232 1 102.144 41.7208 101.127 -0.000399361 0.000240191 -0.000233367
233 1 80.7411 42.8559 105.119 -0.321949 -0.967979 0.885844
234 1 84.262 46.7974 103.951 0.00050669 0.000222456 0.000336128
235 1 78.6832 46.7863 103.299 0.399547 -0.00119219 0.20456
236 5 77.9396 45.0325 100.661 -0.141547 -0.478512 1.32349
237 5 80.5487 44.2166 100.119 0.000103236 -0.000111464 0.000119708
238 1 82.0417 42.1336 102.219 0.000353053 7.49907e-05 6.47461e-05
239 4 80.6685 44.5404 103.015 -1.00321 0.580292 -0.47912
240 1 79.0534 42.1847 101.469 0.674819 0.154804 0.0466269
241 2 81.6757 46.2463 104.666 -1.90788e-05 0.000419038 -0.000405325
242 1 83.3092 43.9136 104.413 -0.000139442 -0.000350064 0.00034494
243 1 80.4096 47.025 100.984 0.000258274 -7.07407e-05 -0.000169927
244 2 82.1497 46.2376 99.028 0.000363863 -0.000497605 7.92724e-05
245 2 88.825 43.4811 108.486 -8.42766e-05 -5.63354e-05 0.000169302
246 1 85.9069 45.2725 101.508 0.000332712 0.000114077 4.31659e-05
247 2 85.807 44.2548 104.877 0.000322401 0.000233328 -0.000484305
248 1 85.1088 42.6179 102.401 0.000217169 -0.000321146 -0.000680362
249 2 83.3077 42.9536 100.109 -0.000256393 -0.000268047 -0.000122139
250 1 82.9668 45.2914 101.541 0.000268903 -5.70823e-05 -1.59244e-05
251 4 87.2146 46.3585 103.873 6.83163e-05 0.000375628 0.000219174
252 1 88.0017 43.6653 103.543 -4.93726e-05 -0.000152453 -0.000189807
253 4 91.0742 44.3472 103.381 -0.000340741 0.000440844 0.000195247
254 1 90.1895 42.135 101.977 0.00045188 0.000177213 0.000266467
255 2 89.7068 45.9641 104.722 0.000298825 0.000312313 -0.000225545
256 1 89.9101 43.1697 105.87 0.000161314 7.24577e-05 -0.000102864
257 3 87.7899 43.4891 100.898 -0.000103722 2.86694e-05 -0.000134473
258 1 92.8888 43.5443 105.478 -0.000147665 -2.63389e-05 -2.91959e-05
259 1 87.7899 45.2451 106.516 8.92507e-05 7.00848e-05 -0.000146434
260 1 88.9268 45.8929 101.529 0.000591338 -7.43722e-05 -7.67686e-05
261 4 94.2064 45.9921 100.801 -0.00049658 2.54383e-05 -0.00019946
262 1 93.7004 42.4176 102.521 0.000567564 0.000849815 -0.000284358
263 1 95.1186 45.7969 105.793 -0.000136027 -0.000111924 -2.13069e-05
264 1 95.6902 42.7791 104.644 0.000131081 -0.00019708 0.00015787
265 1 96.0766 40.0637 102.878 2.74505e-05 -0.000115625 0.000168719
266 2 93.6716 45.0542 103.332 -0.000188788 0.000283223 -9.963e-05
267 1 96.3428 45.3501 103.065 -0.000255602 -0.000180351 7.56703e-05
268 4 92.0972 44.4033 100.918 -0.000570905 4.10929e-05 0.000170354
269 1 98.2031 47.8457 103.363 -9.78879e-05 -0.000255939 0.000184217
270 4 96.6948 45.1709 100.186 -0.000567685 -4.79123e-05 -6.84001e-05
271 4 102.463 44.8838 105.064 0.000136436 -6.42484e-05 0.000548109
272 2 99.4337 43.0068 100.81 0.000282992 -0.000108765 -0.000413186
273 2 100.316 46.0734 104.006 0.000427224 -1.85848e-05 0.000183543
274 3 97.8516 45.9464 105.239 -0.00021085 0.000124381 0.000416402
275 1 98.6608 43.6196 104.17 -0.000122388 0.000368933 -6.93317e-05
276 5 96.8196 42.7343 101.765 -0.000157518 -0.000164509 8.00111e-05
277 1 99.0674 45.4526 101.662 -0.000550796 3.74153e-05 -0.00029107
278 1 107.874 46.4601 105.113 -0.694296 0.163972 -1.08403
279 1 103.757 42.8482 103.52 -0.000176611 -2.86755e-05 0.0002564
280 1 102.033 44.7088 100.455 -0.000210203 0.000357053 0.000308389
281 1 105.392 44.9204 105.253 -1.02472 0.916445 2.30615
282 1 103.769 46.1724 102.562 0.000179492 1.24627e-05 -0.000214799
283 1 106.34 44.3972 102.877 0.716273 -0.183368 -2.54246
284 3 104.505 42.8713 100.886 0.232522 0.753763 -0.175974
285 3 104.638 45.2866 100.203 0.212788 -0.0902691 -0.226893
286 2 87.5395 35.3463 107.734 0.824049 -0.0672256 0.193568
287 1 88.1868 36.6778 110.771 -0.283175 1.45099 -0.371265
288 1 90.3852 35.6576 109.485 0.542559 -0.64617 0.952472
289 1 92.9041 34.1582 108.661 -0.839326 0.951249 1.13573
290 2 89.8837 34.2013 107.037 -0.660028 -0.262464 0.481713
291 1 93.6065 35.7417 111.609 0.0292184 0.274969 -0.38541
292 1 90.4321 36.7965 106.94 0.000272356 -0.000175875 -0.00041694
293 3 91.6821 33.5188 105.697 0.383401 -0.99269 -0.604551
294 1 96.0394 34.6926 110.793 0.394081 0.781059 1.39229
295 1 98.0722 36.6793 109.68 -0.00028479 -0.000272079 4.00496e-05
296 1 95.3976 36.0676 107.733 -0.000168316 -8.68236e-05 1.78009e-05
297 2 97.5316 35.6922 106.109 0.000342461 6.46867e-05 0.000493215
298 3 96.7243 34.0632 108.604 0.0802391 -0.920844 -1.33542
299 1 96.6318 33.2817 106.028 0.728508 0.223146 -0.385431
300 2 94.3321 33.1752 106.985 0.0186284 -0.323632 -1.33911
301 1 99.1614 34.584 108.093 0.464096 -0.991289 -0.137516
302 3 99.0482 34.3801 110.939 -0.499572 0.785771 -0.147829
303 1 101.912 35.4455 107.814 1.05436 0.320219 -0.373566
304 2 101.522 34.7224 110.432 -0.0818275 -0.451857 -0.722045
305 5 103.251 36.8801 110.585 0.413337 -0.776106 0.102631
306 4 104.474 36.4356 105.963 -0.191684 -0.184678 -0.377484
307 1 83.556 40.9984 109.818 -0.366555 1.54117 0.644576
308 1 84.6104 39.9317 107.622 -0.0854093 -0.786089 -1.97605
309 1 81.4659 40.4099 106.859 0.546121 0.430356 0.109327
310 1 89.3395 39.5819 111.699 -0.0785258 -0.610854 0.217875
311 1 87.7741 41.414 106.98 1.65038e-05 -0.000427453 3.51447e-05
312 2 88.6558 40.9294 109.448 0.000685964 -0.00043013 -9.01237e-05
313 1 88.2494 38.54 108.32 3.77308e-05 -0.000354506 -5.01059e-05
314 1 88.0116 36.8655 105.489 0.000139995 -0.000363468 0.00026473
315 3 86.5767 39.0576 106.131 -0.000201946 -0.000332805 -0.000449347
316 5 86.2539 39.127 110.438 0.193064 -0.193478 0.144653
317 1 85.6848 37.1766 108.077 -0.375098 0.385843 -0.0981641
318 2 86.1912 41.3462 109.181 0.000374854 0.000173149 0.000248684
319 1 85.5855 41.4871 105.091 0.000469143 4.74804e-05 -0.00016085
320 1 91.5145 40.762 110.105 -6.63709e-05 -0.000188715 -0.000225324
321 5 92.5816 38.3784 111.224 -0.000183187 0.000106174 0.000313744
322 3 92.9654 41.4137 107.057 0.000276005 -6.33569e-05 -9.37088e-05
323 2 90.4921 40.6973 107.581 0.000381201 0.000210131 -0.000577231
324 1 93.9394 39.5113 108.899 0.000184019 -0.000515735 0.000158458
325 1 92.3449 38.8891 106.471 0.000284374 8.50953e-05 0.000189425
326 5 92.8859 36.933 108.784 -0.000220573 0.000188366 0.000627982
327 3 90.6926 38.3883 109.284 -0.000354543 -1.96333e-05 1.38779e-05
328 2 95.4094 37.3924 110.191 -0.000159107 -6.71561e-06 -5.32932e-05
329 2 98.2265 41.3474 108.42 0.000267647 0.000184322 0.000399513
330 1 96.2517 42.7822 109.677 -0.0003254 0.000630602 0.000227202
331 1 95.6353 41.0499 107.143 0.000252596 0.000284923 0.00030013
332 4 99.3914 39.2262 110.165 -0.000200964 -0.000354824 -0.000549956
333 1 97.2703 38.5805 107.644 0.000286964 6.23349e-05 0.000415596
334 5 96.4797 39.8689 110.011 -0.00048405 0.000295006 0.000290882
335 2 97.8123 39.4534 112.126 4.18491e-05 -0.000329057 -0.000501086
336 1 98.8809 41.8464 111.152 0.000254366 0.000253141 -9.96162e-05
337 3 100.793 37.3601 109.103 0.000151819 -0.000157833 0.000476772
338 1 98.0469 40.7566 105.406 -0.00036224 0.000267894 -9.26757e-05
339 4 102.882 40.8634 107.187 0.000333131 6.043e-05 -0.000284564
340 1 100.239 39.7675 107.385 0.000184737 0.00020929 -0.000195689
341 1 99.6487 37.0556 106.639 0.000256513 0.000181828 -0.000347794
342 1 102.218 39.5849 109.718 -0.000235596 -0.000219221 0.000217782
343 1 105.068 39.4119 111.138 1.37202 -0.110888 -0.645178
344 1 104.039 37.9874 108.262 0.220399 -0.106895 -0.388428
345 1 101.719 41.4579 111.779 -3.36825e-05 1.71598e-05 7.78168e-06
346 1 106.003 40.709 108.999 0.494927 0.628419 -1.51253
347 1 105.6 39.362 106.353 -0.03516 0.596033 -1.02039
348 2 101.412 41.4987 104.802 -6.92512e-05 9.42451e-05 -7.43931e-05
349 1 84.5173 43.9303 110.263 -0.319198 -0.284725 0.168205
350 2 83.5157 42.3499 106.81 5.0873e-05 9.17047e-05 -6.30218e-05
351 1 81.4943 43.2457 108.227 0.431206 -0.227579 0.022913
352 2 82.429 46.1128 109.522 0.185503 -0.0300607 -0.253421
353 1 83.0162 45.339 106.961 -0.000204773 -0.000220571 -0.000179514
354 2 79.9065 45.1553 106.254 0.441012 0.477718 -0.0584485
355 2 85.0786 46.5756 111.533 0.569753 -0.0629306 -0.491007
356 2 84.9454 46.1578 108.795 -0.000146299 -0.000216683 -2.96877e-05
357 3 87.0742 43.2669 110.141 -9.67511e-05 0.000102058 -0.000116175
358 1 89.4691 42.6603 111.186 0.000157854 -0.000318932 0.000324334
359 1 85.6691 43.604 107.644 0.000400233 0.000249757 0.000222609
360 1 87.5607 45.7926 109.458 2.71848e-06 -0.00011192 -0.000197214
361 3 85.3966 46.2643 106.271 0.000153637 -0.000339646 0.000516811
362 1 90.3956 46.0509 107.591 -0.000180188 -1.52564e-05 -6.59e-05
363 2 97.2506 44.7507 111.186 0.000447748 -4.37031e-05 -0.000201551
364 3 93.7863 42.2168 109.327 0.00037585 -0.000444869 0.00013746
365 2 92.2616 43.1397 111.001 -0.000270063 -0.000211315 0.000267684
366 1 91.4818 43.1982 108.406 7.39476e-05 3.82547e-05 -0.000445451
367 5 90.3085 45.1745 110.317 -0.000343857 -0.000265709 -0.000530964
368 1 93.184 45.4692 110.272 0.000411558 -0.000205083 -0.000246781
369 1 92.2694 46.6571 105.265 0.000149176 0.00033113 0.000249918
370 1 91.2569 47.4672 112.927 -3.16548e-05 -2.69497e-05 0.00035994
371 2 92.9663 45.2202 107.587 0.000106801 0.000219019 -0.000464969
372 3 95.4443 46.4622 111.195 -0.000348852 -0.000333183 -0.000137698
373 1 98.0504 47.1887 110.571 8.55712e-05 0.000326106 6.31919e-05
374 4 101.898 44.5037 110.406 0.000543986 0.000813741 0.000463109
375 1 97.3256 43.7846 106.924 -5.88996e-05 -0.000215457 0.000561201
376 1 99.1279 44.1416 109.255 0.000532176 -1.36621e-05 -0.000265272
377 3 94.6718 43.5037 107.447 2.2206e-05 -0.000179119 0.000755982
378 2 98.0361 46.4952 107.755 0.000344625 0.000321654 0.000218615
379 1 95.7577 45.6479 108.767 0.000204262 0.000171902 7.40389e-05
380 1 102.25 43.8057 107.703 -0.000226509 -0.00020971 0.000252283
381 5 99.9528 42.4928 106.688 -0.000431724 0.00031203 0.000320333
382 3 100.873 41.9335 109.173 -2.20673e-05 -0.000607595 0.00014456
383 5 100.024 45.1794 106.473 -4.71331e-05 -0.000150009 1.95706e-05
384 1 104.98 45.3513 111.318 5.54735e-07 0.000112692 6.0372e-06
385 1 100.55 49.0618 110.834 0.000149526 0.000450733 0.000225175
386 1 100.562 46.7077 108.877 -0.000129388 0.000626193 0.00024503
387 4 104.675 42.5373 106.819 -9.39307e-05 0.00037608 0.000285067
388 4 107.978 45.6096 107.932 0.469524 0.104153 -0.874576
389 3 106.945 44.363 109.763 0.133835 -0.123829 0.500158
390 4 107.193 42.8944 107.58 0.13906 0.145036 -0.360631
391 1 106.328 42.6062 111.514 0.259085 -0.199938 0.298342
392 4 104.906 44.983 108.337 -0.00032642 0.000375926 9.68328e-05
393 5 91.1543 36.4439 112.61 -0.83829 0.678919 -0.265876
394 2 96.2949 36.0664 113.814 -1.96722 -0.894367 1.05448
395 3 93.9866 36.7561 114.153 -0.439979 0.321422 -0.0950532
396 1 98.0739 36.9098 112.553 0.967057 0.383052 -1.11373
397 1 100.799 36.7676 111.786 -0.730359 0.627778 0.157359
398 1 86.7628 41.5359 112.201 0.8107 0.381353 -1.16639
399 2 90.0651 40.5156 114.441 -0.0267276 0.0287663 -0.409246
400 1 92.0805 41.8225 113.28 0.000210468 0.000168898 -0.000434014
401 5 93.2725 41.2 116.113 -0.631147 0.338214 0.734897
402 2 94.0147 40.8225 111.462 0.000422432 -0.000384623 0.00022352
403 5 96.4742 41.7862 117.251 -1.18698 -0.412591 -0.440996
404 1 95.3272 38.6013 112.65 0.000322224 -0.000456853 0.000180478
405 1 95.8154 38.7107 115.695 -0.479928 0.516378 -0.943029
406 1 92.5461 39.0569 113.924 0.261329 -0.135951 0.396878
407 1 95.017 41.3709 114.155 5.74542e-05 -4.85572e-05 -4.12706e-05
408 3 96.3728 41.4451 112.001 6.95508e-05 0.000398431 0.000417806
409 1 100.174 39.2687 113.338 0.058311 0.171395 0.419186
410 2 98.4139 37.8514 115.199 0.132932 0.376949 -0.304167
411 1 97.7788 40.6198 114.473 0.0003965 -9.68331e-05 2.58216e-05
412 1 100.851 40.218 116.261 -0.511494 -0.270552 -0.100442
413 2 98.3907 39.9947 116.924 -0.686198 -0.837557 0.737094
414 1 103.031 38.9175 112.656 -1.82988 -1.03957 1.90933
415 2 104.797 41.2261 113.184 0.843041 0.620863 -1.22932
416 1 102.918 41.1289 114.704 -0.329487 -0.317547 -0.00243007
417 3 91.4299 43.2964 115.66 0.113365 -0.0122073 -0.572926
418 1 91.2671 44.5807 113.039 -0.000235742 -0.00021239 -0.000466992
419 3 89.1808 42.868 113.674 -0.148527 0.0569605 0.73899
420 3 89.5316 45.3142 114.776 -0.17584 0.648866 -0.0853959
421 1 92.3589 45.9343 115.755 0.153484 -0.352657 -0.255067
422 1 87.3762 44.8172 112.228 0.366307 -0.137501 0.682948
423 2 97.6941 44.4089 117.82 -0.794994 0.707625 0.350223
424 1 94.589 43.9799 117.311 -1.03733 -0.0284322 -0.447985
425 3 93.7278 43.8402 114.657 -0.000190345 -0.000138982 4.22802e-05
426 2 96.1816 43.6914 115.361 -0.000128834 -0.000213902 0.000133286
427 1 94.7092 43.6406 112.13 2.76786e-05 8.51087e-05 -0.000290407
428 1 96.1446 45.977 113.605 4.55305e-05 7.04469e-05 -0.00045756
429 1 95.693 46.5365 116.449 0.984041 -0.907031 -0.0109721
430 3 93.5473 45.8964 113.113 -0.000351459 -0.000574495 -0.000260156
431 2 98.9558 47.0149 113.097 -0.000353848 0.000215792 0.000124977
432 3 98.6092 46.9228 117.725 -2.00786 -0.949606 1.16666
433 5 99.8989 44.7198 112.233 0.000158563 -0.000249772 -0.000155475
434 1 97.6634 43.3446 113.355 0.000340091 0.000303206 0.000324669
435 1 98.9932 42.6463 116.494 1.25033 0.338147 -0.257195
436 3 100.968 44.6786 114.971 0.000388456 -0.000318356 0.000208026
437 5 100.281 42.2989 114.042 -6.79284e-05 -2.70957e-05 9.21433e-05
438 1 102.324 43.0602 116.642 -0.308674 -0.818358 0.139387
439 1 100.805 45.0579 117.794 -1.29299 0.665142 -0.167027
440 1 98.487 45.4147 115.36 -0.000119584 -0.000114107 0.00023221
441 1 103.853 42.4476 109.97 -0.000114359 -0.000362091 0.000204015
442 1 103.246 45.7674 116.093 -0.427473 0.313806 0.806146
443 3 106.217 44.2609 113.642 -1.19166 -0.53507 0.532272
444 3 104.431 43.4654 114.994 0.139447 -0.300276 0.366171
445 1 102.749 43.7773 113.037 -0.000262092 -0.00028451 -3.14662e-05
446 3 104.154 45.6747 113.806 0.767155 0.689818 -0.887398
447 1 108.104 45.1417 112.439 0.913158 -0.177096 -2.28128
448 1 106.512 47.0125 113.616 0.513034 -0.457465 0.268067
449 2 80.6721 48.7617 92.0678 -0.348211 1.0165 0.00141881
450 2 83.3566 49.1622 94.1676 -0.000601584 0.000525758 0.000277229
451 2 82.4844 50.6814 92.4861 1.47296 -0.964838 -1.21608
452 1 82.8573 49.5327 90.1886 -1.29124 1.22356 0.297084
453 1 87.7048 51.3587 93.2839 -3.98965e-05 -0.000186846 0.000367401
454 2 85.3205 49.9753 92.4614 -0.000147941 0.000146118 0.000382241
455 1 84.9134 48.3033 89.0106 -0.213178 -1.76206 0.374757
456 1 85.3587 51.3833 89.8819 -0.262231 -1.91886 1.17711
457 1 86.7759 49.7027 87.6984 2.0917 0.563001 -0.321864
458 3 83.7708 47.9876 91.9775 -8.13225e-05 0.000460993 0.000470208
459 1 90.1868 49.2144 93.4031 -3.26916e-05 -0.000221191 0.000172753
460 1 89.6985 48.3243 88.34 0.510796 -0.044746 0.280575
461 1 87.9572 49.7591 90.7803 0.000515536 0.00105253 -0.000201632
462 2 87.4391 47.2937 89.1164 -0.719677 0.47823 0.740227
463 1 91.6468 49.0736 90.9283 -0.000104327 -0.000200399 -0.000150258
464 1 89.6037 51.3786 89.2728 -0.622919 1.15363 -1.26838
465 3 90.2077 51.4706 91.8071 -9.0854e-05 -0.00058712 -4.65046e-05
466 4 89.2643 47.1111 91.1411 9.13208e-05 0.00029784 0.00034747
467 2 95.0777 49.9399 93.0795 -0.000376173 0.000222446 0.00056743
468 2 92.7543 47.7206 88.868 0.634178 0.0767757 -0.0037407
469 2 96.532 47.4387 90.8029 0.646622 0.146593 0.435091
470 3 96.3029 47.8613 93.6997 -1.50334e-05 0.00037067 -0.000154193
471 1 94.8142 49.7016 90.4122 -0.64877 0.772707 0.154388
472 1 91.9487 50.4127 88.4192 1.84312 -0.313972 -0.189749