# LAMMPS data file written by OVITO Basic 3.7.5
32800 atoms
5 atom types
0.0 90.51 xlo xhi
0.0 90.51 ylo yhi
0.0 181.02 zlo zhi

Atoms  # atomic

6403 1 1.85282 4.79962 55.5053
14574 4 4.36369 3.13951 54.4918
14175 1 0.106529 18.55 62.3904
8104 3 0.178038 15.8788 61.9037
6083 1 5.96621 1.05502 56.0486
5305 1 8.84341 1.6678 55.226
5396 4 7.36442 3.92479 54.1466
17452 1 5.77006 4.10863 56.6769
1071 4 10.5267 3.58825 54.0915
2994 5 11.9868 1.79296 55.5622
7874 1 14.9719 1.1339 56.1769
1730 4 19.3214 4.21112 54.3011
134 4 17.1205 1.67635 54.3836
1518 4 14.6653 3.29688 54.1884
1182 5 17.0441 3.75148 56.3519
4794 1 22.2708 3.58747 55.1616
741 4 24.5426 1.85573 54.9925
13301 1 0.288466 38.6802 65.6838
6485 1 19.7689 2.19867 56.2816
2636 4 28.1929 1.21893 54.7654
249 4 27.2588 4.20271 54.5398
18393 2 0.0644177 42.2224 62.5658
7517 4 23.3811 44.0919 55.2349
1695 5 4.29177 6.11808 55.2208
3527 5 0.616262 7.26752 55.0824
5380 4 5.44277 8.88716 55.4448
6993 4 9.73562 6.69185 54.2534
8344 1 7.16992 6.53618 55.8957
5401 4 8.75669 9.11409 55.2276
3605 4 12.3809 5.2205 55.0056
13039 4 14.7078 6.42329 54.7164
2260 4 12.4527 8.85635 55.3853
4506 4 17.5721 6.42248 54.3147
1473 5 16.5535 9.07561 55.2616
13716 4 20.625 6.76465 54.5352
2941 5 24.8859 5.5328 55.3528
3044 4 23.4613 7.27967 53.9311
243 1 22.1426 9.2362 55.8702
15 4 29.672 5.45518 53.923
16258 1 25.2248 8.64337 55.8584
2678 4 27.2293 7.64872 53.9985
10851 1 27.4437 6.39587 56.7608
7276 1 7.02364 30.0985 67.7252
61 4 2.6458 9.25279 54.7746
3569 4 3.35244 13.0362 54.946
8889 4 5.80547 11.5682 54.8851
56 4 7.68079 14.3941 54.8133
2653 4 9.06036 12.0681 55.8696
3361 5 10.5994 14.3552 56.2004
8647 5 12.4603 11.8428 56.5115
2928 4 14.3547 10.7721 54.9928
5350 4 13.3783 14.3882 55.0069
12644 4 19.107 10.2433 54.1518
9279 4 17.1749 12.1306 54.8469
2752 4 19.9832 13.2253 54.1556
6241 4 21.8419 10.9096 53.742
12749 1 22.9827 12.8676 55.9933
653 4 24.8011 11.0989 54.3359
6166 4 25.1987 14.3173 54.8139
8107 1 27.6184 10.5775 53.9215
6264 1 29.4082 12.3356 55.5253
14476 4 27.6065 13.7809 53.7834
14320 1 26.7581 11.8503 56.6952
3458 4 4.51954 15.6471 55.1441
1876 1 1.56221 15.2423 56.0379
11352 1 4.0702 19.6729 55.4849
4425 4 1.42822 17.7227 54.2434
1999 1 1.14472 19.3084 56.5105
3845 4 6.68918 18.2314 55.0604
418 1 9.10333 16.8422 55.9822
377 4 12.1418 17.2292 54.8472
4838 4 11.1893 19.763 55.9594
12410 4 16.1669 14.8383 55.0253
870 4 15.3375 18.2204 54.4766
4901 4 19.1959 16.0979 54.7112
1470 4 18.736 19.4875 55.4117
834 5 17.2664 17.1689 56.2275
241 5 21.9095 15.417 54.4718
12027 4 23.1156 18.3731 54.7893
5675 1 20.7176 17.5504 56.5976
14523 4 25.7913 17.2392 54.7794
1741 4 28.2563 18.2523 55.6185
5540 1 27.6086 15.1536 56.2945
4900 1 2.19517 21.9065 54.9693
6440 1 4.06721 24.2095 55.5223
2817 4 1.4818 24.5641 53.7194
716 4 5.62732 21.8776 54.5841
1 4 7.68723 20.4952 55.8723
1929 1 10.3462 22.718 56.4356
913 4 12.9125 24.0045 54.8461
1143 4 13.7131 20.3179 55.2043
17467 4 17.334 21.8756 54.7452
6509 1 17.9882 24.6124 55.8447
1862 4 20.1588 23.899 53.6774
12661 4 21.2586 20.2848 55.2343
6569 4 23.6618 21.5414 53.7684
9627 1 22.8159 23.9509 54.9923
2008 5 20.6869 22.9966 56.2513
536 5 25.5065 20.081 55.9359
406 4 27.0239 20.9486 53.4289
8612 1 25.877 23.1878 55.095
10277 1 28.2747 21.3642 55.9822
485 4 27.9802 24.2391 53.48
10175 3 28.0914 24.107 56.277
1494 4 0.907084 27.3557 53.9662
477 4 2.24157 29.8265 55.2361
2067 5 8.04459 26.5533 55.7663
4214 4 5.46291 27.2092 55.4063
12488 4 5.53938 30.1021 54.9817
10656 4 8.5895 29.5721 55.6966
1019 4 10.5982 25.3913 55.0119
9020 4 13.0932 27.0613 55.0009
8338 4 11.3431 29.7983 55.3701
6660 5 10.4307 27.5296 56.7685
1327 4 15.5458 25.0168 54.2712
1416 4 18.1642 27.2376 54.814
2217 4 15.8967 28.5762 55.0688
1461 4 25.0124 25.2202 53.2501
2083 4 21.4662 29.2019 54.709
15944 1 20.845 26.2336 55.7997
793 4 22.2306 26.6077 53.4823
1880 4 24.4786 28.3946 53.7327
6574 1 26.527 26.1504 55.8544
490 4 27.584 27.7838 53.5034
5551 1 29.5315 29.0026 55.527
15147 1 26.4643 29.1542 55.7368
7003 1 29.6862 25.9992 55.0448
8348 4 3.70201 33.1743 54.9574
9354 1 1.04027 33.8765 56.2602
7101 4 0.134158 31.9446 54.3524
6733 4 7.5111 32.3127 54.6513
235 4 6.31038 35.4211 55.132
13182 4 11.7378 32.9146 55.04
2301 5 14.2322 30.9967 55.8556
6273 4 14.9276 33.7046 55.0287
2195 4 18.4572 31.1321 55.0899
2419 4 17.4272 34.9027 55.4033
2882 4 21.5079 32.8175 55.2939
6105 4 24.2347 31.702 54.7072
8758 4 27.8862 31.0886 53.8817
4791 4 29.763 34.8771 54.6337
10510 1 26.7986 32.5439 56.3246
3433 4 26.8251 35.0503 54.4528
3086 4 2.90987 35.7631 53.6673
2223 1 1.09549 37.0514 55.5396
12141 5 4.0455 37.9765 55.2204
2253 1 1.37943 40.1492 56.1164
13042 2 19.9749 11.1549 67.5047
1221 4 8.50544 38.3519 56.0141
5289 4 9.28269 34.7458 54.7852
10635 4 10.7852 36.866 55.382
14874 4 14.0464 39.3439 55.1685
1854 1 11.3759 39.8952 56.4409
3689 1 14.7724 36.5395 56.0416
5229 4 16.8172 39.1204 54.8591
643 4 20.4696 38.904 55.503
12129 4 23.0287 35.1772 55.3537
8409 1 20.1323 36.1135 56.3368
16029 4 22.6956 41.1186 55.751
3802 4 24.2907 37.5863 55.0515
1191 5 28.9635 39.9446 55.182
757 1 27.8039 37.2761 56.2354
5150 4 3.61754 40.7197 54.1494
5570 1 3.13231 42.8313 56.1767
11827 4 2.35217 43.4235 53.3834
364 1 16.8695 15.7506 67.8149
5360 5 6.54028 40.2195 55.0498
7121 5 5.2986 43.0649 54.3851
3919 1 8.975 41.6566 56.3601
6257 4 8.24032 43.8988 54.7539
1363 4 11.5626 42.5267 54.9617
2022 1 1.73847 44.8986 57.6326
7094 5 18.8127 44.4437 56.3559
714 4 16.9773 41.9099 55.8504
6871 4 19.8543 41.9694 55.4619
23363 4 30.095 36.6672 65.5962
5018 4 25.8546 42.6741 55.6571
7296 4 26.0751 39.7291 55.3099
2906 2 29.7776 19.1551 64.447
6407 2 2.97593 2.33238 56.7664
12966 1 1.32704 4.2846 59.801
13125 3 3.63767 3.67522 61.4646
11445 1 2.44423 1.6085 59.6159
13364 2 0.48213 3.43707 57.3911
2895 1 0.404243 0.900549 57.1256
6383 5 3.3625 4.78336 57.8339
11187 2 8.7468 4.36261 56.0268
11112 2 4.85986 2.2039 58.4572
11123 1 5.26872 1.23047 60.8583
2173 1 5.69718 4.53444 59.7137
4893 1 7.84071 2.50221 58.0495
19301 3 7.71295 3.26972 60.6987
9547 1 8.35278 0.740156 60.4685
1967 4 13.3327 44.7807 55.3141
12492 1 14.0879 3.86438 56.9852
252 1 10.4851 3.16348 60.1688
12586 1 10.3985 0.694848 58.2101
14728 1 10.9835 3.80828 57.1975
6568 2 12.7468 1.9397 58.7178
635 1 13.3407 2.53008 61.1768
4489 3 10.9626 1.04427 61.3646
4580 3 11.6822 4.62429 62.1312
3354 3 13.1683 4.79232 59.6439
14244 1 15.4662 1.82957 58.8621
3119 1 17.7031 0.56874 57.5017
1776 1 16.4648 3.03675 61.2145
14496 2 17.9482 0.853546 60.384
8915 4 18.0241 3.31939 58.8038
1694 3 15.6475 4.64657 58.9525
12824 4 20.1377 4.66313 59.9025
9443 1 19.4508 2.67109 62.0762
7701 1 24.2718 3.71036 57.6242
17831 1 22.592 1.17519 57.2677
4271 1 20.3898 1.43013 59.4538
111 1 23.1512 2.52798 60.2659
7706 3 21.633 3.88524 57.8126
2670 1 24.9031 1.02241 62.1372
6731 1 29.31 3.86386 56.5366
108 2 25.0063 1.17294 58.415
6338 3 26.6046 2.60786 56.342
2205 1 28.2072 1.29363 58.2688
5188 2 26.5668 2.09299 60.4063
6752 1 27.0725 4.11003 58.5569
1168 1 29.4719 3.08335 60.2618
2974 1 25.494 4.52084 61.08
12753 3 10.1086 5.68632 67.6955
12789 1 3.08805 7.89774 57.3505
2019 2 0.950893 6.03236 57.6595
14072 3 2.66451 9.09226 59.9969
139 1 3.51366 6.52039 60.2247
7933 1 0.398399 7.36799 60.0873
3530 1 1.0221 9.72113 57.9435
1625 2 4.94785 8.61123 61.493
9777 1 8.30907 5.3871 58.604
11714 1 5.25618 9.42341 59.0603
3391 1 9.12365 5.71471 61.7086
4800 2 5.39761 6.71553 58.0383
12653 2 6.86447 6.90803 60.6445
19495 1 7.7265 8.28827 58.3199
1217 3 7.7446 9.21828 60.8544
3036 3 9.84108 7.80757 59.8797
6810 1 10.1496 7.04325 56.9741
3101 3 10.8944 5.70891 59.2656
8318 2 12.3674 8.73001 58.8986
2193 1 12.9733 6.523 57.5918
9765 1 12.2794 7.18191 60.9225
1287 1 14.733 9.56768 57.6742
8267 2 14.2483 9.44453 60.5255
3217 1 14.594 5.42455 61.9029
7960 1 15.1385 7.21228 59.7609
2755 1 19.1048 8.45355 56.3707
1131 1 19.3122 5.4916 56.9656
12335 1 16.2912 6.46064 56.9608
7451 4 17.9966 6.20811 59.5549
1219 3 17.2029 8.65743 58.395
5127 1 17.5298 8.8378 61.125
3162 4 17.3084 5.85258 62.0697
7707 1 22.4113 6.39981 56.6895
280 1 20.5494 7.81276 58.9021
546 1 22.8952 5.64007 59.5815
6581 1 23.5841 8.5289 58.4816
5049 3 22.7891 7.80024 61.1158
8185 3 25.0753 7.62012 60.5961
4603 2 21.4205 9.80322 60.6332
9963 5 28.1832 9.06151 56.1913
2500 2 25.0801 6.31794 58.1222
1382 2 28.2094 4.91683 62.0255
13975 2 29.6658 5.39573 58.878
12574 1 27.3828 6.65943 59.8709
14693 1 29.5683 7.35584 61.6011
1636 5 26.3868 9.18745 58.4572
6526 1 27.7232 9.6783 60.9289
11310 2 29.1196 8.10092 58.5185
1848 1 0.407536 10.3328 61.522
18808 1 1.10511 12.4357 56.9961
23447 1 3.7571 10.9285 57.1053
6892 1 3.79699 14.054 57.7069
2058 1 3.33103 10.8502 61.6876
6310 1 3.68233 13.6949 61.0406
4967 2 2.39294 11.8265 59.3909
11276 1 0.909203 13.2039 61.6821
8316 1 1.28429 14.8038 59.0297
8852 3 29.4663 41.3455 62.6979
5672 3 4.99989 12.1129 59.2307
85 2 6.95297 10.3385 56.828
12435 1 6.55299 13.0801 57.1604
11155 1 8.0335 11.4243 59.1094
4567 5 6.61498 14.1082 60.0938
9669 5 8.99696 12.9678 61.4251
9438 1 6.19432 11.3107 61.4423
623 1 8.90192 14.6668 58.6243
9847 1 10.3681 9.96546 57.6454
9835 2 10.5781 12.5605 58.9024
16477 1 10.36 10.2747 60.5851
7061 1 12.867 14.3345 58.0745
11935 1 12.9428 11.4476 59.4396
5270 3 11.7581 12.6092 61.5569
2341 1 14.6918 13.9214 60.197
11072 1 11.2719 15.076 60.4576
637 5 14.5055 11.5196 62.2008
3192 1 18.2213 13.999 56.7498
432 1 15.1722 12.6234 57.2898
5780 2 17.3566 10.8705 57.0882
5311 1 16.3003 11.1828 59.7933
3521 1 19.1692 10.4909 59.0407
7927 2 18.8156 12.1536 61.2617
420 2 17.5896 13.5262 59.4155
3218 1 20.2714 13.2702 59.2138
8575 1 20.0846 11.6428 56.3812
9127 2 21.8578 10.7437 58.2886
6553 1 23.2797 13.2227 59.0799
3388 1 21.7305 12.332 61.7318
1935 1 24.1085 10.5413 60.5902
6588 1 24.6462 13.7325 61.6653
6419 2 24.3645 10.8162 57.5114
8668 2 20.9236 14.719 57.0487
9540 2 25.2598 14.0614 57.5076
1619 2 28.6923 10.7632 58.3207
10438 1 26.3814 12.1911 59.5858
1873 1 28.9895 12.768 61.0574
1562 3 28.6165 13.3525 58.1817
3942 2 8.18342 44.7219 60.795
1669 2 0.752258 17.1886 57.9124
6652 1 3.49801 17.265 57.2547
6628 1 2.13157 17.3876 60.4022
4328 2 3.2446 19.5324 58.4711
4966 2 4.53118 15.8987 59.6415
8239 1 4.69844 18.6206 60.8392
8643 1 0.696086 19.8463 59.3523
6729 1 8.21282 15.58 61.8157
7116 1 6.04194 18.9023 58.1373
15864 1 6.57338 16.1125 57.4825
9843 2 6.87542 17.0234 59.9675
3276 1 7.93115 19.3571 60.7173
17302 3 9.25668 17.0279 59.5913
2326 1 9.03694 19.0608 57.9406
832 3 9.59327 17.7035 62.0848
4840 1 14.3356 16.9361 56.7894
5242 1 11.428 17.1051 57.7594
6742 1 13.4127 19.3321 58.1779
10238 2 13.5708 16.6308 59.6949
3840 1 11.1586 18.9791 60.3373
4824 3 14.6229 19.3209 60.7109
8102 1 19.7603 14.8564 61.5793
11214 1 15.1181 16.7033 61.8588
188 2 17.1415 15.6203 60.5295
3302 2 16.0804 15.137 58.0073
340 2 18.5466 18.8913 58.0608
10256 1 16.1845 17.786 59.1058
5069 1 18.9712 16.2306 58.6553
8011 1 18.5069 17.9164 61.1464
469 1 16.2154 19.9274 56.8186
2023 3 22.4118 15.0829 61.4719
1692 1 23.3391 15.8549 56.8486
2001 2 20.6959 18.2694 59.3642
11215 1 23.4894 18.6325 57.6712
2100 3 24.4037 15.7544 59.4013
8663 5 21.8855 15.8876 59.1879
573 1 23.7111 18.0414 60.5149
9514 1 21.3441 17.7081 62.1465
6814 1 27.1958 15.0341 59.38
3793 1 26.0241 17.3943 57.6354
9564 2 25.6449 16.1868 61.4326
3805 1 26.8279 18.2742 60.321
8360 1 29.1084 16.9899 58.2088
6260 2 29.126 15.7023 61.1183
20546 3 29.5321 18.925 60.9621
3798 1 29.2321 43.5296 64.6482
2012 3 2.35369 20.1045 61.2703
1711 1 1.20447 24.1666 56.6274
14755 3 2.20921 21.5547 57.6117
8691 1 0.881784 23.2253 59.3051
8726 1 3.47934 21.8562 59.94
8192 2 3.35918 24.0521 58.0717
95 2 5.1218 23.4029 61.6696
3020 1 7.23487 23.9455 56.4811
8577 1 5.07237 21.8489 57.4611
1278 2 5.95754 21.0016 59.9335
154 1 8.23519 22.0193 58.5556
8505 2 5.56958 23.5225 59.2511
10234 1 7.73087 22.7781 61.4915
1872 2 9.91164 21.2884 60.7325
2146 1 7.79877 25.0307 59.5845
7141 1 9.75635 25.2704 61.7552
400 3 10.8333 20.9321 58.4266
3290 1 10.5291 23.4942 59.3852
5137 1 12.8905 21.5669 60.2486
261 1 12.9055 22.2578 57.4161
9687 1 14.4238 24.0771 59.6358
893 2 10.8912 22.8717 62.2553
1292 3 15.2855 21.6045 58.765
1496 2 12.1553 24.8918 60.8752
1705 1 15.5443 23.2079 56.5975
11756 2 15.5422 21.6869 61.3958
5265 1 18.461 21.8602 57.6358
12572 1 17.2678 20.3641 60.0089
5257 2 18.4626 22.9546 60.2197
8245 3 17.0327 23.9545 58.6816
3760 1 16.5705 24.2786 62.0284
9937 1 20.4002 20.4738 60.9913
7410 4 23.0957 20.6764 59.695
2225 1 23.5852 21.8688 57.0496
104 3 20.7806 20.3707 57.964
7792 1 24.2162 23.1877 59.7021
1841 1 21.0962 22.7734 59.3042
12758 3 22.732 21.8004 62.0389
19533 2 22.4835 24.7403 57.7465
6495 3 24.814 24.5412 57.2763
6490 5 25.1605 20.479 61.4173
6173 1 23.509 24.6693 62.1296
5106 1 28.5346 19.9612 58.5181
257 3 25.6494 20.1635 58.5373
8858 2 26.2219 22.4125 57.5693
8186 1 27.1884 22.0921 60.1921
6992 3 28.9174 22.8175 58.1007
5131 3 29.5297 24.2594 60.2567
2190 3 26.3609 24.3807 61.3968
14989 1 27.1187 24.9264 58.8986
8252 1 27.2557 45.2286 56.9576
4707 1 3.0908 25.0144 60.5939
5116 2 0.456181 25.1337 61.3754
3110 1 2.66707 26.8029 56.4219
7968 5 1.08901 28.7877 57.8158
6312 1 0.47261 26.2764 59.0246
5209 2 3.20147 27.2334 59.242
10404 1 1.37847 27.8561 61.4362
4954 1 4.62608 29.1084 57.3691
1675 3 3.94248 29.7063 62.0421
413 1 7.8517 27.8363 58.3919
784 3 5.66898 25.6687 60.8205
4776 1 5.33478 25.8584 57.9041
3774 1 5.66344 28.4679 60.2088
10409 1 9.58125 29.0619 61.0574
644 2 9.59087 25.1708 57.6538
4979 3 7.77822 27.2402 61.0798
14891 2 9.95342 29.888 58.2095
3087 1 12.3094 25.2638 57.5856
5221 3 13.3436 26.7012 59.554
6482 1 13.2517 28.4118 57.5106
7855 1 10.5669 27.0668 59.431
1551 1 12.2536 29.6499 59.9629
3311 1 14.5418 26.2076 62.1248
8948 5 11.7487 27.4697 61.9574
8743 1 19.6058 25.1091 58.2981
10337 2 14.7456 28.5804 59.887
480 1 19.3404 29.0354 56.8332
11517 1 15.1932 26.1118 57.0845
9367 2 18.7269 25.5745 60.7411
13167 2 17.8758 26.9508 57.3798
5151 1 16.4226 29.1759 57.8232
5549 1 16.3513 26.5062 59.6124
6575 1 18.7939 28.4238 59.9514
700 4 23.7149 29.6776 56.7651
6909 1 23.7267 26.8741 56.16
5059 3 21.5069 25.5576 60.2987
7046 1 21.581 27.5789 58.3884
8880 3 23.0107 27.4534 61.2968
6890 1 24.0959 26.2402 59.3339
8655 2 23.8528 28.9444 59.2976
18021 1 24.4888 29.797 61.8887
8425 1 21.5066 29.6571 60.6001
9855 2 25.3667 26.7211 61.8518
3219 3 25.7768 27.7079 57.7754
2313 1 28.3886 26.4854 61.1863
14974 1 28.5254 27.3895 57.7346
17877 4 26.3945 28.2228 60.0238
8835 2 28.8471 29.2468 59.7181
6354 3 28.1939 30.1869 57.4251
486 1 2.55029 30.1406 59.8054
5582 2 3.20191 31.4812 57.1684
8723 1 0.500867 32.8158 60.6956
9908 1 3.06861 33.4794 58.8803
3836 3 3.2119 32.5309 61.4282
5361 1 5.14243 31.4403 59.677
4955 3 2.54613 34.8847 61.2296
9852 1 3.61633 35.515 56.656
1748 1 5.19612 34.1313 60.8706
345 1 9.08096 32.3691 57.0362
18150 1 5.87359 32.3592 56.7705
3214 2 7.33085 30.4327 57.8723
5939 1 7.60831 33.1091 59.1988
8679 2 7.61651 30.5665 60.4976
4903 1 8.21862 33.7736 62.0209
4964 2 5.6128 34.5511 58.2434
2017 3 9.81158 34.755 59.5363
16742 1 8.17913 35.3215 57.3418
1672 1 10.1309 32.0597 60.0379
3927 1 14.1157 34.1507 57.7054
21548 1 11.2111 34.5911 57.3173
16721 1 11.9628 31.6493 57.6959
5292 2 12.5876 33.2234 59.614
5624 1 14.0984 32.2243 61.846
3988 1 14.7934 31.263 59.1516
7847 3 14.9505 34.0856 60.2304
3857 1 16.4899 32.0118 56.9862
1918 2 16.7216 29.9469 60.3721
3137 3 18.7419 30.8074 58.6911
2742 1 17.382 32.7903 59.9955
8590 2 19.2174 31.1204 61.2639
27 1 19.1271 33.2514 57.2856
2168 1 19.4851 34.0255 61.9269
2073 2 16.7677 34.7802 58.0914
1238 5 23.8844 32.652 57.1421
681 1 21.3271 30.9938 57.6582
8738 1 22.047 34.5527 58.1137
3930 2 20.4123 32.8613 59.6347
8574 1 23.191 32.1904 59.9003
6740 3 21.8114 34.6579 60.908
3465 1 27.4335 30.3738 61.7238
4641 1 25.8064 30.8108 58.7506
2300 2 25.5392 32.2493 61.7954
14401 1 29.6749 34.6592 60.1465
3638 2 28.0195 33.0399 61.6903
5290 1 25.8543 33.8632 59.5932
2345 1 28.3172 32.1795 59.1244
5951 2 28.5477 34.6701 57.4831
11999 2 3.97279 36.1506 59.3911
5228 1 1.17394 35.7371 58.6413
15029 2 2.81004 37.9023 57.7426
11699 1 1.86623 37.6941 60.762
11768 2 4.60869 36.493 61.906
13390 1 4.89789 38.5585 59.9141
5476 2 2.82897 40.1309 59.1807
18156 1 4.44127 40.1357 57.1503
5219 4 0.168172 40.8224 53.6339
13 1 5.91244 37.4841 57.3608
2325 1 7.07802 36.1968 60.0126
15123 1 7.82393 38.9927 59.7415
19144 2 9.47139 36.3203 61.2914
2319 1 9.95769 37.4097 58.4051
8722 3 7.16449 39.9667 57.538
9026 3 6.06505 40.0765 61.9694
2129 3 10.0218 40.1064 58.9163
11794 2 12.6852 37.1199 57.3903
8653 1 12.2919 35.8894 59.8577
15052 2 10.5352 38.4601 60.7592
7051 1 13.281 38.5409 61.8427
6872 1 12.7116 39.2519 58.9108
9767 1 14.9756 36.8555 59.1857
8677 1 17.5768 37.1721 56.9823
3688 1 19.1432 35.5902 59.2564
8326 1 17.7569 38.3409 59.713
1938 2 16.8427 35.8065 60.7609
336 5 15.4389 39.2588 57.6773
2107 3 15.8805 37.8225 61.7526
16366 3 20.034 38.1713 58.1904
12085 3 15.202 39.8013 60.3267
1459 5 20.4743 39.1469 60.8358
3699 1 22.6645 37.7844 57.407
12241 3 21.3746 36.9286 59.7353
5134 1 24.073 36.3591 59.6316
3616 1 23.23 39.1605 60.0975
830 2 26.9025 35.1361 61.7593
429 1 25.3377 35.2623 56.9525
7150 2 26.0702 38.6577 60.1382
8134 2 25.2871 38.1087 57.8
3628 1 27.2069 36.3884 59.2056
1864 2 28.6051 37.2047 61.5546
3620 1 27.8183 39.5989 58.1061
408 1 29.6562 39.6832 60.435
5598 3 0.0466261 44.3503 63.9788
472 1 0.277799 31.2022 64.7104
10091 1 0.480459 40.5298 60.221
2177 1 3.73498 42.8341 59.0405
2334 1 3.56785 41.2513 61.5689
3786 2 1.31564 41.9805 58.2061
5384 1 1.39459 43.3779 60.7995
5534 3 4.58908 44.8631 57.5668
8311 2 4.0534 43.9094 61.7787
13679 1 5.92994 42.6181 57.1671
2961 2 6.12405 43.9103 59.6569
5449 3 5.69545 41.0793 59.631
26627 1 8.13234 42.124 59.3182
11915 2 9.11395 40.6444 61.7582
3691 1 8.49601 44.4663 57.7198
5668 1 6.68874 42.4684 61.8424
6462 3 9.95069 43.2128 60.9569
9686 1 18.4483 38.7559 67.7021
8489 2 10.7024 44.4635 56.3277
10334 1 13.9616 42.0313 56.8641
16232 1 12.9979 44.7344 58.1664
12797 1 11.0755 42.5747 58.3512
1548 2 12.4008 43.6983 60.5292
1855 1 11.7105 41.145 60.8818
7261 1 14.6566 41.76 62.0928
16410 3 13.9264 41.9418 59.3981
7122 1 14.9861 44.2734 60.5036
12023 1 15.9531 44.5625 56.9626
2548 1 18.5098 40.0506 57.3428
2655 1 17.7795 44.6967 59.2283
3852 1 16.4872 41.9554 58.9029
8836 1 17.4413 42.9047 61.564
5529 3 19.1295 42.5329 57.9892
7136 2 18.8799 41.1354 60.124
3545 1 24.7578 40.734 57.8103
9143 1 21.314 40.5802 58.3579
8755 1 21.7175 43.6107 57.5656
4096 1 20.5494 43.2854 60.2968
5850 1 23.8063 44.2023 61.1224
11880 3 23.0147 42.2782 59.4844
671 1 24.6463 43.7857 58.1319
2167 1 22.3305 41.6125 61.9976
2133 4 2.56714 0.660696 54.9492
7318 1 29.3388 42.6448 56.3776
16877 1 25.218 41.421 60.7834
2170 5 27.1784 42.3858 58.5579
169 3 27.7366 41.6522 61.0028
10988 3 26.4326 43.9202 60.5255
7317 1 28.9653 44.0987 61.7066
8664 2 28.428 44.7756 59.2702
10125 2 26.8637 44.6056 65.0927
6428 1 1.77276 2.09932 62.3383
7897 1 4.29951 0.85747 63.5973
11109 3 2.01858 1.74467 64.9426
3442 1 3.24347 4.02423 64.2207
6068 1 1.85099 4.16383 66.7208
305 1 4.3627 2.05882 66.4068
6566 4 21.2661 0.777188 54.5544
8399 2 6.49869 3.26009 67.7318
240 1 6.03988 3.16203 62.9027
1700 1 8.95221 2.76762 62.9063
6353 1 7.10402 1.47413 65.3144
13211 1 8.69717 4.05313 66.0573
15800 2 5.98697 4.21997 65.2795
3636 2 7.02503 0.439565 62.7897
10177 3 6.39948 45.1838 56.042
6326 2 10.3652 1.78891 66.0926
9523 1 11.808 2.25742 63.8165
2025 1 13.1812 1.97128 66.94
3215 2 13.8046 4.06959 63.83
2983 1 14.6338 1.49397 64.0387
90 1 12.0123 4.66093 65.9617
2009 1 15.0818 3.97675 66.1228
492 2 10.2087 4.68257 64.0293
12731 1 17.5921 0.689183 63.1635
1674 2 16.7975 3.4438 63.8276
8097 1 17.7015 4.25155 66.5901
9372 3 16.7493 1.8921 65.7124
1474 3 19.0325 2.43943 65.1277
2354 1 18.8142 1.52767 67.4755
1225 1 19.2425 4.82894 63.9307
1386 1 21.8912 4.68608 62.1931
12575 3 22.1149 1.38614 62.4393
9464 1 20.3401 0.322745 64.5801
3186 2 24.1424 3.4155 63.2115
15929 1 23.6481 1.27042 64.8811
4673 3 21.4949 1.39033 66.8411
8200 5 21.4635 3.01181 64.4167
9439 1 23.4516 4.62648 65.5776
5872 1 20.6961 4.07341 66.976
6185 3 24.9035 0.205549 66.9578
24004 5 17.4435 28.6465 67.7547
16389 3 26.4311 0.519088 64.3758
1475 2 25.7186 2.6071 65.8919
7873 1 27.3996 2.50577 63.1652
8334 1 28.4097 3.48115 66.1765
4981 1 27.648 0.644972 66.5706
5641 2 29.433 1.12043 64.3958
17231 1 26.3226 4.78637 64.3274
5421 1 0.53116 6.38897 65.1477
9311 1 4.59536 5.28734 67.3906
13067 1 1.31096 5.28605 62.4145
1998 1 2.185 8.09367 62.7919
3 1 4.5235 9.15352 64.1059
8014 1 1.78001 9.17274 65.9736
8049 1 4.47477 8.43569 67.2243
6491 2 3.43781 6.69047 65.2013
5375 4 29.0347 45.1175 54.5803
6408 1 4.91476 5.89891 62.5469
3258 2 7.6871 5.17887 63.7492
10580 1 7.29406 7.76486 63.1178
10457 2 6.01786 6.66476 65.4977
9693 1 9.33925 6.93639 65.307
4759 1 7.19302 9.30425 65.7017
6063 3 9.41572 9.02162 67.1928
93 2 10.0384 8.17708 62.4189
2095 3 10.3533 9.36957 64.6003
6502 1 12.1445 6.73627 63.8239
325 1 11.7793 7.71084 66.9723
4497 2 14.0416 6.81688 65.5664
2547 3 13.0143 9.14634 65.1343
15840 1 14.9913 8.26206 62.9021
8501 1 12.2788 9.71351 62.7661
8322 1 18.4565 8.77436 67.6405
5192 2 16.0851 5.9495 64.2881
11197 1 18.1194 7.98957 64.2288
255 1 16.5199 7.00354 66.7715
4507 1 15.7896 9.71391 65.2473
16095 2 19.3221 6.4153 66.2636
5945 2 19.0396 45.0945 61.5097
1805 1 20.1299 7.23803 61.9185
14648 5 20.4429 9.23511 65.5771
356 1 24.0412 6.5237 63.1742
11646 4 23.5409 7.73519 66.0036
3447 5 21.4212 6.59543 64.6576
348 1 22.5109 9.2006 63.5521
2110 1 22.4622 10.0798 67.5472
6746 1 27.4671 9.0981 67.6839
6585 3 26.794 6.79108 62.4982
3149 1 25.5296 9.18468 62.8514
6912 1 26.0851 5.35066 67.3861
2909 1 29.0271 6.1171 64.4398
1693 3 28.5084 6.7702 67.1209
12831 1 26.3472 7.62298 65.3286
5392 2 29.0446 8.67777 65.5713
11153 3 28.0804 8.71373 63.4411
151 2 0.398508 3.63835 64.1111
3435 1 3.86887 13.3284 64.1585
1598 3 1.87336 11.2201 63.8796
2423 3 1.18201 14.0488 64.1793
3139 1 3.90153 11.3697 66.2899
3535 1 0.930181 12.1434 66.2347
16397 1 2.69608 14.7662 66.6525
3040 2 6.25893 11.2008 67.3516
14405 2 6.34533 13.7571 62.7364
11612 1 8.5426 10.5274 63.1318
8561 2 8.12995 13.253 64.0769
9454 2 6.16619 11.4541 64.1169
3573 1 6.05521 13.9514 65.8212
11998 1 8.70415 11.8091 66.2941
8333 1 13.3273 14.3368 62.8448
4974 1 10.8369 12.01 63.9942
16551 3 13.6595 11.4951 64.5238
17297 3 14.0547 11.5341 66.7985
11199 1 11.5124 10.8492 66.8149
3158 1 12.672 13.6855 65.7604
1384 1 10.4182 15.014 63.552
1612 2 15.3906 13.7133 67.0145
1851 1 16.7435 13.5691 62.1985
14641 2 17.0407 10.8196 62.6844
8571 1 19.3113 13.0843 63.8376
3453 1 16.2755 12.4279 64.846
11185 2 18.3577 10.9376 65.3883
411 2 18.0475 13.1546 66.8705
4732 1 19.8095 10.1996 62.863
17541 3 18.0632 14.929 65.4379
247 1 20.646 13.6501 66.4651
1453 2 24.186 11.4988 63.0728
2179 2 23.1918 12.5522 67.1881
11156 1 21.9063 11.6886 64.7725
17151 2 22.0719 14.2903 63.7303
8088 1 24.5306 13.4922 64.7783
1163 1 24.9097 10.3591 65.5203
12367 2 15.3299 0.386684 61.38
6594 2 27.0166 14.6104 62.3891
3471 1 0.205064 38.4311 58.1411
11051 2 29.6203 12.274 65.1667
10173 1 26.822 11.8042 62.8676
5525 4 27.6939 10.7817 65.4351
12889 3 25.8329 12.6402 67.0421
3293 1 28.0922 14.1253 67.0895
3317 3 27.1891 13.3509 64.833
8204 1 29.898 10.8324 63.0294
3400 1 29.4988 14.4919 63.8261
8158 2 2.62362 15.7736 62.4821
10265 2 3.20776 18.1935 63.0084
11139 1 1.129 16.6922 64.4019
8174 2 2.25828 18.6459 66.1629
19675 1 4.48537 16.6234 65.0206
2475 2 24.0666 40.7109 67.8481
8550 1 5.16119 15.9152 62.3653
1505 1 9.30097 14.9419 66.4017
6484 1 4.90062 19.5417 65.1407
2295 1 6.79607 18.2308 63.1915
8166 2 7.46559 15.7302 64.3253
11200 1 9.59293 17.6143 64.9159
1536 2 7.0864 17.62 65.8711
92 1 9.82522 18.6341 67.5876
11207 1 12.3114 17.3334 62.5071
6888 3 14.4399 17.8894 64.2878
9995 1 12.482 16.8045 65.6757
13294 3 14.919 17.2316 66.8753
8165 2 12.0479 19.4446 65.6514
7764 1 14.7771 19.9078 65.737
9840 1 19.9922 16.4129 67.3214
18 1 15.3751 15.358 64.9068
11437 1 16.2693 19.2423 62.9461
3147 2 17.4569 16.1219 63.1194
8400 1 17.3127 17.7204 65.4703
4987 3 19.9242 18.883 66.0806
2255 2 18.8668 18.7587 63.7137
8249 1 20.0198 16.2473 64.3196
5208 1 23.8522 16.3579 63.3695
975 4 22.7717 15.6263 65.7329
4738 1 24.9589 17.985 65.868
15860 2 21.9916 18.1888 65.1264
3230 5 23.41 19.4421 63.3355
8178 1 25.0517 15.2273 67.3373
10028 1 28.2076 17.4501 62.755
3570 2 25.8244 18.3851 63.1344
3618 1 29.5978 16.6813 65.7783
14329 3 27.3907 16.9533 67.2437
9229 1 26.6798 15.8665 64.6359
177 2 27.5101 18.7245 65.2474
806 1 29.1783 19.1138 67.554
16553 1 11.7581 28.2501 67.8166
547 1 2.24417 22.9177 62.3672
6592 3 3.96459 24.0544 66.6118
4785 1 4.60483 20.9153 62.5358
114 1 4.23343 24.6342 63.8547
22789 1 1.97742 20.504 64.1762
161 3 3.83082 22.1005 64.7717
5129 1 1.46479 23.2533 65.3505
10525 1 18.6649 31.7412 67.9026
13453 1 2.99286 21.3601 67.2328
3377 1 7.99922 20.2349 65.6733
5456 2 7.22416 20.8162 63.2313
167 1 5.92746 22.1978 66.575
636 2 8.34705 23.2707 66.8365
495 1 9.15273 22.7829 64.3977
7008 2 6.31196 22.8803 63.9083
4631 4 13.043 21.4919 67.3302
800 1 13.2388 20.155 62.9762
1840 1 10.0881 20.1858 63.2627
2433 2 10.4215 21.3867 66.7743
14803 5 13.5886 23.3824 62.377
9769 1 12.4113 22.3061 64.704
2119 2 14.4335 24.5141 64.5904
8958 1 10.8595 24.139 66.5651
14822 4 15.0204 23.0685 66.7797
8546 4 15.3328 22.0671 64.1757
4990 1 18.0438 21.836 63.0624
2099 1 17.945 20.7295 65.746
12985 4 17.0305 23.7883 65.229
6809 3 6.25287 0.229672 58.5705
1699 1 20.1552 23.1356 65.7305
6348 1 20.4336 23.6421 62.1182
8435 1 23.3236 20.3592 66.1898
7957 1 20.9287 20.5772 64.0605
5302 1 22.8637 22.8254 64.5254
102 3 24.4263 24.6782 65.3879
1996 1 20.3543 20.9051 67.8972
8274 3 29.9122 21.5424 63.4306
3130 2 25.1464 22.601 66.21
6481 1 27.7534 20.2543 62.4972
4751 1 28.8973 23.8744 62.5959
14983 1 25.8048 22.6218 63.3483
6902 3 25.5536 20.4156 64.5043
9809 1 26.2446 20.3165 67.2749
5061 1 27.8667 21.5774 65.3275
3855 1 26.9946 24.5889 66.7981
6781 5 29.506 24.0053 65.4712
844 5 26.7609 40.31 67.4533
5378 1 4.05276 27.0088 62.4083
8861 2 1.72784 25.5459 63.8811
2720 1 2.27536 28.8347 63.9931
5303 1 0.792956 28.7136 66.5553
478 1 3.086 26.4177 66.0594
9944 1 4.77585 29.4835 65.3713
4886 1 6.2567 25.1499 66.1775
8800 3 5.48799 27.1552 64.6731
4652 1 7.05266 25.6188 63.1159
6344 1 6.73107 28.9043 62.9007
2184 1 7.82174 27.9918 65.6694
7994 2 8.94596 25.3635 64.9431
9971 4 9.68902 27.7355 63.5999
3370 2 5.72535 27.7318 67.3553
9936 1 11.8269 25.5287 64.0458
10251 1 14.1501 29.1973 62.3999
742 3 13.9667 27.1073 64.623
1946 3 10.447 27.1124 66.0341
27921 1 12.2135 28.9827 64.8162
1933 1 13.2404 25.8889 66.8489
8422 1 14.5861 28.5338 66.9195
2089 1 29.868 32.1529 56.0224
584 1 18.8921 25.4205 63.912
3550 1 17.0764 27.7403 62.2323
8494 2 19.0192 25.4424 66.6008
5395 2 19.2842 29.4545 63.1574
3864 2 15.7715 28.6051 64.6101
245 3 16.2846 26.0632 64.064
904 1 18.1059 27.9819 65.1079
14916 1 16.1652 26.149 66.7123
8180 1 20.1998 29.8604 66.1665
1858 1 20.4455 27.047 62.2318
6414 3 21.4495 25.1607 63.9589
8321 1 22.9769 28.0869 66.8417
3462 1 23.5277 26.9106 63.9739
18159 2 20.7817 27.2418 65.209
5553 1 22.1296 25.2355 66.5361
8684 1 21.9868 29.5493 63.7668
9972 3 24.3823 29.5814 64.7984
11449 1 8.60925 26.1353 67.7258
11706 1 26.6504 25.4949 64.1459
18124 2 25.3903 26.9825 66.1853
286 1 29.5642 26.5286 63.9308
4104 2 28.2611 26.9625 66.0068
24 1 26.6653 29.4732 66.4524
18587 1 26.5025 28.2625 63.639
3382 3 28.6463 29.3989 64.7308
2733 1 30.0772 29.0609 62.2427
11854 2 1.35779 30.8194 62.1628
13106 2 2.35569 30.7366 66.1101
13754 1 1.18256 33.7926 63.4525
634 1 3.32117 31.6446 63.9153
11442 1 2.62202 33.5198 66.2399
6728 1 4.29269 34.345 63.6708
8587 1 30.0143 42.5367 59.3178
5035 1 6.03927 31.7243 62.3996
5288 2 5.03762 32.4625 65.8492
9660 1 9.81977 30.3826 66.2114
1939 1 9.1241 31.339 63.1968
17849 1 7.58611 32.7899 66.7112
13605 2 6.77427 33.4776 64.3247
10008 2 7.00271 30.8257 64.9753
986 2 9.35129 33.4639 64.8715
10393 1 11.3561 33.8535 62.1882
9038 3 11.7463 30.7252 62.4105
4155 1 11.6959 32.1375 64.6193
6582 1 13.6117 33.4096 67.017
13274 3 12.5515 30.7036 67.2081
2015 2 14.2737 33.5616 64.1263
10179 1 14.4755 30.9969 65.0476
1766 1 10.6906 33.1073 67.4554
11548 1 16.6286 33.8782 62.7102
8264 1 16.9013 30.8649 62.8588
10095 3 17.2616 30.6321 65.7407
3992 1 16.6175 33.3826 65.7987
5430 1 19.2017 32.1559 64.3947
2164 3 19.8586 33.9534 66.2997
5836 1 24.2745 34.4149 62.3921
11478 1 21.9136 32.1261 62.4179
6840 1 24.1048 30.9563 67.161
13279 4 21.9681 32.0364 65.4816
3700 1 21.5291 34.5503 64.1967
412 5 24.321 33.4183 65.5323
3509 2 24.0685 31.821 63.7448
719 3 26.5745 31.0637 64.147
14633 3 29.1463 31.2806 66.3634
12993 1 29.2477 31.7662 63.7844
5772 1 26.8329 32.4264 66.8432
571 1 26.7482 33.6234 64.0679
3645 1 29.0396 34.1022 65.7795
1785 3 26.0163 34.8841 66.8076
3213 1 29.7458 11.3464 67.7783
6564 3 4.40481 35.8533 65.7888
21166 2 0.567467 35.7849 65.1494
75 2 3.84532 38.8241 62.3727
7920 1 2.28679 36.5803 67.0135
3771 1 2.44399 36.7511 63.5765
2702 2 3.07942 38.6194 65.4707
5514 1 1.39858 39.812 63.1757
5215 1 7.66634 38.1186 62.4509
5282 2 6.78805 35.7212 63.0185
110 2 9.86 35.4512 66.4088
751 1 5.52607 37.8547 64.2172
10005 1 9.34987 36.1785 63.8316
5034 2 6.52644 39.4083 66.4076
6973 1 7.11207 35.8164 65.9337
8636 2 8.49527 38.3414 65.3119
2591 1 12.1534 35.1844 64.988
10338 1 14.2864 35.5529 62.3597
7224 3 11.6923 36.5551 62.5733
12348 3 11.0421 37.8002 66.0573
2186 1 10.5875 38.7894 63.5152
10040 4 13.2412 37.951 64.796
5367 1 12.8263 36.3756 67.5337
1917 2 14.802 35.3129 65.6634
1782 1 29.5426 28.8618 67.5381
405 3 18.7163 34.9467 64.2481
11454 1 19.0698 36.9825 62.2547
630 1 17.637 39.9432 62.0878
10184 1 16.6098 36.6632 63.988
2086 1 17.8366 35.8821 66.6602
2481 2 17.9763 38.9391 64.89
12094 1 15.6561 37.9146 66.6924
3541 1 15.3002 39.6097 64.022
3588 1 0.217106 21.0212 66.9764