LAMMPS (2 Aug 2023)
WARNING: Using I/O redirection is unreliable with parallel runs. Better to use the -in switch to read input files. (src/lammps.cpp:537)
OMP_NUM_THREADS environment is not set. Defaulting to 1 thread. (src/comm.cpp:98)
  using 1 OpenMP thread(s) per MPI task

            dimension 3
            units metal
            boundary s s s
            atom_style atomic
            timestep 0.001
            region myregion block 68.20034 114.37180000000001 16.759 59.9777 67.51732332378224 112.73050888252149  units box
            create_box 5 myregion
Created orthogonal box = (68.20034 16.759 67.517323) to (114.3718 59.9777 112.73051)
  8 by 4 by 6 MPI processor grid
            mass 1 91.224
            mass 2 63.546
            mass 3 58.693
            mass 4 26.982
            mass 5 47.867 
            pair_style eam/alloy
            pair_coeff * * ZrTiCuNiAl_Zhou04.eam.alloy Zr Cu Ni Al Ti
Reading eam/alloy potential file ZrTiCuNiAl_Zhou04.eam.alloy with DATE: 2018-03-30
            create_atoms 1 single 80.3283 27.9578 74.59387736389685
Created 1 atoms
  using lattice units in orthogonal box = (68.195723 16.754678 67.512802) to (114.37642 59.982022 112.73503)
  create_atoms CPU = 0.000 seconds
create_atoms 1 single 83.23294 27.4168 74.04693547277937
Created 1 atoms
  using lattice units in orthogonal box = (68.195723 16.754678 67.512802) to (114.37642 59.982022 112.73503)
  create_atoms CPU = 0.000 seconds
create_atoms 1 single 85.76458 28.0728 73.01810876790832
Created 1 atoms
  using lattice units in orthogonal box = (68.195723 16.754678 67.512802) to (114.37642 59.982022 112.73503)
  create_atoms CPU = 0.000 seconds
create_atoms 2 single 88.32672000000001 27.8478 72.38918865329514
Created 1 atoms
  using lattice units in orthogonal box = (68.195723 16.754678 67.512802) to (114.37642 59.982022 112.73503)
  create_atoms CPU = 0.000 seconds
create_atoms 1 single 88.82116 25.8319 74.64159289398282
Created 1 atoms
  using lattice units in orthogonal box = (68.195723 16.754678 67.512802) to (114.37642 59.982022 112.73503)
  create_atoms CPU = 0.000 seconds
create_atoms 2 single 91.15168 27.4889 74.30768928366763
Created 1 atoms
  using lattice units in orthogonal box = (68.195723 16.754678 67.512802) to (114.37642 59.982022 112.73503)
  create_atoms CPU = 0.000 seconds
create_atoms 3 single 76.76796 31.3167 74.56802269340974
Created 1 atoms
  using lattice units in orthogonal box = (68.195723 16.754678 67.512802) to (114.37642 59.982022 112.73503)
  create_atoms CPU = 0.000 seconds
create_atoms 2 single 78.32684 30.2157 73.2697188538682
Created 1 atoms
  using lattice units in orthogonal box = (68.195723 16.754678 67.512802) to (114.37642 59.982022 112.73503)
  create_atoms CPU = 0.000 seconds
create_atoms 3 single 78.58946 33.0285 71.8953224068768
Created 1 atoms
  using lattice units in orthogonal box = (68.195723 16.754678 67.512802) to (114.37642 59.982022 112.73503)
  create_atoms CPU = 0.000 seconds
create_atoms 3 single 80.96334 30.3521 73.86406097421204
Created 1 atoms
  using lattice units in orthogonal box = (68.195723 16.754678 67.512802) to (114.37642 59.982022 112.73503)
  create_atoms CPU = 0.000 seconds
create_atoms 1 single 83.46816 30.2683 73.2432335816619
Created 1 atoms
  using lattice units in orthogonal box = (68.195723 16.754678 67.512802) to (114.37642 59.982022 112.73503)
  create_atoms CPU = 0.000 seconds
create_atoms 1 single 81.11588 32.1646 72.0207070487106
Created 1 atoms
  using lattice units in orthogonal box = (68.195723 16.754678 67.512802) to (114.37642 59.982022 112.73503)
  create_atoms CPU = 0.000 seconds
create_atoms 3 single 84.30998 29.8351 71.04590189111748
Created 1 atoms
  using lattice units in orthogonal box = (68.195723 16.754678 67.512802) to (114.37642 59.982022 112.73503)
  create_atoms CPU = 0.000 seconds
create_atoms 1 single 84.32236 32.4499 71.66883128939828
Created 1 atoms
  using lattice units in orthogonal box = (68.195723 16.754678 67.512802) to (114.37642 59.982022 112.73503)
  create_atoms CPU = 0.000 seconds
create_atoms 1 single 87.14064 30.535 71.86925753581663
Created 1 atoms
  using lattice units in orthogonal box = (68.195723 16.754678 67.512802) to (114.37642 59.982022 112.73503)
  create_atoms CPU = 0.000 seconds
create_atoms 3 single 87.05856 33.2428 72.15492011461319
Created 1 atoms
  using lattice units in orthogonal box = (68.195723 16.754678 67.512802) to (114.37642 59.982022 112.73503)
  create_atoms CPU = 0.000 seconds
create_atoms 2 single 86.34262000000001 30.8024 74.03716114613181
Created 1 atoms
  using lattice units in orthogonal box = (68.195723 16.754678 67.512802) to (114.37642 59.982022 112.73503)
  create_atoms CPU = 0.000 seconds
create_atoms 1 single 88.8896 32.0486 74.57128080229226
Created 1 atoms
  using lattice units in orthogonal box = (68.195723 16.754678 67.512802) to (114.37642 59.982022 112.73503)
  create_atoms CPU = 0.000 seconds
create_atoms 1 single 90.35430000000001 30.0396 73.17922750716333
Created 1 atoms
  using lattice units in orthogonal box = (68.195723 16.754678 67.512802) to (114.37642 59.982022 112.73503)
  create_atoms CPU = 0.000 seconds
create_atoms 1 single 93.06264 31.6316 72.87191426934098
Created 1 atoms
  using lattice units in orthogonal box = (68.195723 16.754678 67.512802) to (114.37642 59.982022 112.73503)
  create_atoms CPU = 0.000 seconds
create_atoms 1 single 89.7608 32.9053 72.03994040114613
Created 1 atoms
  using lattice units in orthogonal box = (68.195723 16.754678 67.512802) to (114.37642 59.982022 112.73503)
  create_atoms CPU = 0.000 seconds
create_atoms 1 single 95.59882 33.4065 73.27098005730659
Created 1 atoms
  using lattice units in orthogonal box = (68.195723 16.754678 67.512802) to (114.37642 59.982022 112.73503)
  create_atoms CPU = 0.000 seconds
create_atoms 4 single 74.42924000000001 36.0718 72.76681398280803
Created 1 atoms
  using lattice units in orthogonal box = (68.195723 16.754678 67.512802) to (114.37642 59.982022 112.73503)
  create_atoms CPU = 0.000 seconds
create_atoms 5 single 78.47382 35.6346 71.03339495702005
Created 1 atoms
  using lattice units in orthogonal box = (68.195723 16.754678 67.512802) to (114.37642 59.982022 112.73503)
  create_atoms CPU = 0.000 seconds
create_atoms 1 single 77.41246 34.7897 73.16020435530086
Created 1 atoms
  using lattice units in orthogonal box = (68.195723 16.754678 67.512802) to (114.37642 59.982022 112.73503)
  create_atoms CPU = 0.000 seconds
create_atoms 2 single 76.59936 37.6213 72.35198315186247
Created 1 atoms
  using lattice units in orthogonal box = (68.195723 16.754678 67.512802) to (114.37642 59.982022 112.73503)
  create_atoms CPU = 0.000 seconds
create_atoms 1 single 79.51388 37.3655 73.98818441260745
Created 1 atoms
  using lattice units in orthogonal box = (68.195723 16.754678 67.512802) to (114.37642 59.982022 112.73503)
  create_atoms CPU = 0.000 seconds
create_atoms 2 single 83.48258 33.6035 73.60614487106017
Created 1 atoms
  using lattice units in orthogonal box = (68.195723 16.754678 67.512802) to (114.37642 59.982022 112.73503)
  create_atoms CPU = 0.000 seconds
create_atoms 1 single 80.93531999999999 34.6329 73.71713077363897
Created 1 atoms
  using lattice units in orthogonal box = (68.195723 16.754678 67.512802) to (114.37642 59.982022 112.73503)
  create_atoms CPU = 0.000 seconds
create_atoms 3 single 80.8081 36.8803 72.16290773638968
Created 1 atoms
  using lattice units in orthogonal box = (68.195723 16.754678 67.512802) to (114.37642 59.982022 112.73503)
  create_atoms CPU = 0.000 seconds
create_atoms 1 single 81.7863 34.8223 71.09246131805158
Created 1 atoms
  using lattice units in orthogonal box = (68.195723 16.754678 67.512802) to (114.37642 59.982022 112.73503)
  create_atoms CPU = 0.000 seconds
create_atoms 1 single 83.57248 36.4868 73.67918957020058
Created 1 atoms
  using lattice units in orthogonal box = (68.195723 16.754678 67.512802) to (114.37642 59.982022 112.73503)
  create_atoms CPU = 0.000 seconds
create_atoms 4 single 82.98125999999999 36.7337 69.7481235530086
Created 1 atoms
  using lattice units in orthogonal box = (68.195723 16.754678 67.512802) to (114.37642 59.982022 112.73503)
  create_atoms CPU = 0.000 seconds
create_atoms 1 single 85.23296 35.3785 72.0697888825215
Created 1 atoms
  using lattice units in orthogonal box = (68.195723 16.754678 67.512802) to (114.37642 59.982022 112.73503)
  create_atoms CPU = 0.000 seconds
create_atoms 4 single 85.73053999999999 37.7225 70.21182601719197
Created 1 atoms
  using lattice units in orthogonal box = (68.195723 16.754678 67.512802) to (114.37642 59.982022 112.73503)
  create_atoms CPU = 0.000 seconds
create_atoms 2 single 86.13436 33.5034 74.23222727793697
Created 1 atoms
  using lattice units in orthogonal box = (68.195723 16.754678 67.512802) to (114.37642 59.982022 112.73503)
  create_atoms CPU = 0.000 seconds
create_atoms 4 single 87.31158 37.7329 73.09588297994269
Created 1 atoms
  using lattice units in orthogonal box = (68.195723 16.754678 67.512802) to (114.37642 59.982022 112.73503)
  create_atoms CPU = 0.000 seconds
create_atoms 1 single 87.90554 35.5437 71.19188618911174
Created 1 atoms
  using lattice units in orthogonal box = (68.195723 16.754678 67.512802) to (114.37642 59.982022 112.73503)
  create_atoms CPU = 0.000 seconds
create_atoms 1 single 88.39848 35.0831 74.2393740974212
Created 1 atoms
  using lattice units in orthogonal box = (68.195723 16.754678 67.512802) to (114.37642 59.982022 112.73503)
  create_atoms CPU = 0.000 seconds
create_atoms 4 single 90.40894 36.6066 70.48929077363897
Created 1 atoms
  using lattice units in orthogonal box = (68.195723 16.754678 67.512802) to (114.37642 59.982022 112.73503)
  create_atoms CPU = 0.000 seconds
create_atoms 3 single 93.50708 34.2512 74.2572411461318
Created 1 atoms
  using lattice units in orthogonal box = (68.195723 16.754678 67.512802) to (114.37642 59.982022 112.73503)
  create_atoms CPU = 0.000 seconds
create_atoms 1 single 92.31086 34.2668 71.4612582234957
Created 1 atoms
  using lattice units in orthogonal box = (68.195723 16.754678 67.512802) to (114.37642 59.982022 112.73503)
  create_atoms CPU = 0.000 seconds
create_atoms 1 single 90.99872 35.5101 73.45070154727794
Created 1 atoms
  using lattice units in orthogonal box = (68.195723 16.754678 67.512802) to (114.37642 59.982022 112.73503)
  create_atoms CPU = 0.000 seconds
create_atoms 1 single 93.89016 36.6853 73.10660320916905
Created 1 atoms
  using lattice units in orthogonal box = (68.195723 16.754678 67.512802) to (114.37642 59.982022 112.73503)
  create_atoms CPU = 0.000 seconds
create_atoms 4 single 89.85276 38.1028 72.43133386819484
Created 1 atoms
  using lattice units in orthogonal box = (68.195723 16.754678 67.512802) to (114.37642 59.982022 112.73503)
  create_atoms CPU = 0.000 seconds
create_atoms 2 single 97.11166 37.1609 74.23275277936962
Created 1 atoms
  using lattice units in orthogonal box = (68.195723 16.754678 67.512802) to (114.37642 59.982022 112.73503)
  create_atoms CPU = 0.000 seconds
create_atoms 1 single 98.56392 34.6253 74.5978711747851
Created 1 atoms
  using lattice units in orthogonal box = (68.195723 16.754678 67.512802) to (114.37642 59.982022 112.73503)
  create_atoms CPU = 0.000 seconds
create_atoms 4 single 71.96062 39.5491 74.12124137535817
Created 1 atoms
  using lattice units in orthogonal box = (68.195723 16.754678 67.512802) to (114.37642 59.982022 112.73503)
  create_atoms CPU = 0.000 seconds
create_atoms 1 single 74.80896 38.8895 73.7172358739255
Created 1 atoms
  using lattice units in orthogonal box = (68.195723 16.754678 67.512802) to (114.37642 59.982022 112.73503)
  create_atoms CPU = 0.000 seconds
create_atoms 4 single 73.71284 41.527 72.55188389684814
Created 1 atoms
  using lattice units in orthogonal box = (68.195723 16.754678 67.512802) to (114.37642 59.982022 112.73503)
  create_atoms CPU = 0.000 seconds
create_atoms 1 single 78.4847 38.682 71.17023553008596
Created 1 atoms
  using lattice units in orthogonal box = (68.195723 16.754678 67.512802) to (114.37642 59.982022 112.73503)
  create_atoms CPU = 0.000 seconds
create_atoms 1 single 76.39664 40.5321 72.10258017191977
Created 1 atoms
  using lattice units in orthogonal box = (68.195723 16.754678 67.512802) to (114.37642 59.982022 112.73503)
  create_atoms CPU = 0.000 seconds
create_atoms 1 single 78.26712 42.79 71.43855656160459
Created 1 atoms
  using lattice units in orthogonal box = (68.195723 16.754678 67.512802) to (114.37642 59.982022 112.73503)
  create_atoms CPU = 0.000 seconds
create_atoms 1 single 79.5764 40.5537 73.65953581661891
Created 1 atoms
  using lattice units in orthogonal box = (68.195723 16.754678 67.512802) to (114.37642 59.982022 112.73503)
  create_atoms CPU = 0.000 seconds
create_atoms 1 single 78.07958 42.7909 74.3318623495702
Created 1 atoms
  using lattice units in orthogonal box = (68.195723 16.754678 67.512802) to (114.37642 59.982022 112.73503)
  create_atoms CPU = 0.000 seconds
create_atoms 3 single 77.79334 39.1275 74.58084492836677
Created 1 atoms
  using lattice units in orthogonal box = (68.195723 16.754678 67.512802) to (114.37642 59.982022 112.73503)
  create_atoms CPU = 0.000 seconds
create_atoms 5 single 80.99362 38.466 70.19732217765043
Created 1 atoms
  using lattice units in orthogonal box = (68.195723 16.754678 67.512802) to (114.37642 59.982022 112.73503)
  create_atoms CPU = 0.000 seconds
create_atoms 2 single 79.83612000000001 40.9001 70.72177260744986
Created 1 atoms
  using lattice units in orthogonal box = (68.195723 16.754678 67.512802) to (114.37642 59.982022 112.73503)
  create_atoms CPU = 0.000 seconds
create_atoms 3 single 84.00644000000001 43.2042 72.51614979942694
Created 1 atoms
  using lattice units in orthogonal box = (68.195723 16.754678 67.512802) to (114.37642 59.982022 112.73503)
  create_atoms CPU = 0.000 seconds
create_atoms 1 single 82.62452 41.0872 70.9046471060172
Created 1 atoms
  using lattice units in orthogonal box = (68.195723 16.754678 67.512802) to (114.37642 59.982022 112.73503)
  create_atoms CPU = 0.000 seconds
create_atoms 1 single 81.90164 39.2016 73.138343495702
Created 1 atoms
  using lattice units in orthogonal box = (68.195723 16.754678 67.512802) to (114.37642 59.982022 112.73503)
  create_atoms CPU = 0.000 seconds
create_atoms 3 single 81.5326 41.9469 72.90333925501433
Created 1 atoms
  using lattice units in orthogonal box = (68.195723 16.754678 67.512802) to (114.37642 59.982022 112.73503)
  create_atoms CPU = 0.000 seconds
create_atoms 2 single 84.01706 41.0639 73.70672584527222
Created 1 atoms
  using lattice units in orthogonal box = (68.195723 16.754678 67.512802) to (114.37642 59.982022 112.73503)
  create_atoms CPU = 0.000 seconds
create_atoms 4 single 84.26952 38.6074 71.94566544412608
Created 1 atoms
  using lattice units in orthogonal box = (68.195723 16.754678 67.512802) to (114.37642 59.982022 112.73503)
  create_atoms CPU = 0.000 seconds
create_atoms 4 single 86.22785999999999 39.4083 74.586415243553
Created 1 atoms
  using lattice units in orthogonal box = (68.195723 16.754678 67.512802) to (114.37642 59.982022 112.73503)
  create_atoms CPU = 0.000 seconds
create_atoms 4 single 84.88554 41.0732 69.61275438395415
Created 1 atoms
  using lattice units in orthogonal box = (68.195723 16.754678 67.512802) to (114.37642 59.982022 112.73503)
  create_atoms CPU = 0.000 seconds
create_atoms 1 single 87.9749 42.5969 70.39774842406877
Created 1 atoms
  using lattice units in orthogonal box = (68.195723 16.754678 67.512802) to (114.37642 59.982022 112.73503)
  create_atoms CPU = 0.000 seconds
create_atoms 1 single 86.07672000000001 41.3441 72.5237170200573
Created 1 atoms
  using lattice units in orthogonal box = (68.195723 16.754678 67.512802) to (114.37642 59.982022 112.73503)
  create_atoms CPU = 0.000 seconds
create_atoms 4 single 87.7431 39.7797 70.91379083094556
Created 1 atoms
  using lattice units in orthogonal box = (68.195723 16.754678 67.512802) to (114.37642 59.982022 112.73503)
  create_atoms CPU = 0.000 seconds
create_atoms 1 single 88.87684 42.876 73.50672
Created 1 atoms
  using lattice units in orthogonal box = (68.195723 16.754678 67.512802) to (114.37642 59.982022 112.73503)
  create_atoms CPU = 0.000 seconds
create_atoms 4 single 89.1152 39.9309 74.08308997134671
Created 1 atoms
  using lattice units in orthogonal box = (68.195723 16.754678 67.512802) to (114.37642 59.982022 112.73503)
  create_atoms CPU = 0.000 seconds
create_atoms 4 single 90.12052 40.8507 69.51732332378224
Created 1 atoms
  using lattice units in orthogonal box = (68.195723 16.754678 67.512802) to (114.37642 59.982022 112.73503)
  create_atoms CPU = 0.000 seconds
create_atoms 1 single 90.7402 41.115 72.40516389684814
Created 1 atoms
  using lattice units in orthogonal box = (68.195723 16.754678 67.512802) to (114.37642 59.982022 112.73503)
  create_atoms CPU = 0.000 seconds
create_atoms 5 single 92.23264 38.9926 71.55763518624642
Created 1 atoms
  using lattice units in orthogonal box = (68.195723 16.754678 67.512802) to (114.37642 59.982022 112.73503)
  create_atoms CPU = 0.000 seconds
create_atoms 1 single 93.30328 41.7899 71.44265547277938
Created 1 atoms
  using lattice units in orthogonal box = (68.195723 16.754678 67.512802) to (114.37642 59.982022 112.73503)
  create_atoms CPU = 0.000 seconds
create_atoms 4 single 92.33478000000001 38.8857 74.59618957020058
Created 1 atoms
  using lattice units in orthogonal box = (68.195723 16.754678 67.512802) to (114.37642 59.982022 112.73503)
  create_atoms CPU = 0.000 seconds
create_atoms 1 single 93.9425 41.2555 74.42046189111748
Created 1 atoms
  using lattice units in orthogonal box = (68.195723 16.754678 67.512802) to (114.37642 59.982022 112.73503)
  create_atoms CPU = 0.000 seconds
create_atoms 1 single 95.3602 39.4288 72.80927449856733
Created 1 atoms
  using lattice units in orthogonal box = (68.195723 16.754678 67.512802) to (114.37642 59.982022 112.73503)
  create_atoms CPU = 0.000 seconds
create_atoms 5 single 96.46256 42.1786 73.72038888252149
Created 1 atoms
  using lattice units in orthogonal box = (68.195723 16.754678 67.512802) to (114.37642 59.982022 112.73503)
  create_atoms CPU = 0.000 seconds
create_atoms 1 single 75.18773999999999 43.697 74.40007243553008
Created 1 atoms
  using lattice units in orthogonal box = (68.195723 16.754678 67.512802) to (114.37642 59.982022 112.73503)
  create_atoms CPU = 0.000 seconds
create_atoms 3 single 75.80164 43.3492 71.99432687679084
Created 1 atoms
  using lattice units in orthogonal box = (68.195723 16.754678 67.512802) to (114.37642 59.982022 112.73503)
  create_atoms CPU = 0.000 seconds
create_atoms 1 single 77.59562000000001 45.5629 73.48485914040116
Created 1 atoms
  using lattice units in orthogonal box = (68.195723 16.754678 67.512802) to (114.37642 59.982022 112.73503)
  create_atoms CPU = 0.000 seconds
create_atoms 5 single 79.04086 45.7224 71.5253693982808
Created 1 atoms
  using lattice units in orthogonal box = (68.195723 16.754678 67.512802) to (114.37642 59.982022 112.73503)
  create_atoms CPU = 0.000 seconds
create_atoms 5 single 79.52144 47.9968 73.28653489971346
Created 1 atoms
  using lattice units in orthogonal box = (68.195723 16.754678 67.512802) to (114.37642 59.982022 112.73503)
  create_atoms CPU = 0.000 seconds
create_atoms 4 single 83.07128 43.6221 69.66435862464184
Created 1 atoms
  using lattice units in orthogonal box = (68.195723 16.754678 67.512802) to (114.37642 59.982022 112.73503)
  create_atoms CPU = 0.000 seconds
create_atoms 2 single 80.3479 43.8363 73.65690830945559
Created 1 atoms
  using lattice units in orthogonal box = (68.195723 16.754678 67.512802) to (114.37642 59.982022 112.73503)
  create_atoms CPU = 0.000 seconds
create_atoms 1 single 81.16004000000001 43.9325 71.26072687679083
Created 1 atoms
  using lattice units in orthogonal box = (68.195723 16.754678 67.512802) to (114.37642 59.982022 112.73503)
  create_atoms CPU = 0.000 seconds
create_atoms 1 single 83.62308 45.8998 72.04803312320917
Created 1 atoms
  using lattice units in orthogonal box = (68.195723 16.754678 67.512802) to (114.37642 59.982022 112.73503)
  create_atoms CPU = 0.000 seconds
create_atoms 3 single 81.67862000000001 46.0351 73.33771873925502
Created 1 atoms
  using lattice units in orthogonal box = (68.195723 16.754678 67.512802) to (114.37642 59.982022 112.73503)
  create_atoms CPU = 0.000 seconds
create_atoms 1 single 83.30264 44.0658 74.65126212034384
Created 1 atoms
  using lattice units in orthogonal box = (68.195723 16.754678 67.512802) to (114.37642 59.982022 112.73503)
  create_atoms CPU = 0.000 seconds
create_atoms 1 single 86.00064 44.2055 71.4283618338109
Created 1 atoms
  using lattice units in orthogonal box = (68.195723 16.754678 67.512802) to (114.37642 59.982022 112.73503)
  create_atoms CPU = 0.000 seconds
create_atoms 2 single 88.86568 45.3817 74.57989902578797
Created 1 atoms
  using lattice units in orthogonal box = (68.195723 16.754678 67.512802) to (114.37642 59.982022 112.73503)
  create_atoms CPU = 0.000 seconds
create_atoms 1 single 86.74824 46.8319 72.95284148997135
Created 1 atoms
  using lattice units in orthogonal box = (68.195723 16.754678 67.512802) to (114.37642 59.982022 112.73503)
  create_atoms CPU = 0.000 seconds
create_atoms 1 single 89.05496000000001 45.3681 71.95575507163323
Created 1 atoms
  using lattice units in orthogonal box = (68.195723 16.754678 67.512802) to (114.37642 59.982022 112.73503)
  create_atoms CPU = 0.000 seconds
create_atoms 2 single 89.59524 47.7642 73.38375266475644
Created 1 atoms
  using lattice units in orthogonal box = (68.195723 16.754678 67.512802) to (114.37642 59.982022 112.73503)
  create_atoms CPU = 0.000 seconds
create_atoms 1 single 86.5169 43.9939 74.55814326647564
Created 1 atoms
  using lattice units in orthogonal box = (68.195723 16.754678 67.512802) to (114.37642 59.982022 112.73503)
  create_atoms CPU = 0.000 seconds
create_atoms 1 single 90.89884 43.7017 70.73364893982809
Created 1 atoms
  using lattice units in orthogonal box = (68.195723 16.754678 67.512802) to (114.37642 59.982022 112.73503)
  create_atoms CPU = 0.000 seconds
create_atoms 2 single 91.45938 43.6098 73.471616504298
Created 1 atoms
  using lattice units in orthogonal box = (68.195723 16.754678 67.512802) to (114.37642 59.982022 112.73503)
  create_atoms CPU = 0.000 seconds
create_atoms 2 single 93.9681 43.8652 73.40309111747851
Created 1 atoms
  using lattice units in orthogonal box = (68.195723 16.754678 67.512802) to (114.37642 59.982022 112.73503)
  create_atoms CPU = 0.000 seconds
create_atoms 1 single 92.06716 46.1428 72.55535220630374
Created 1 atoms
  using lattice units in orthogonal box = (68.195723 16.754678 67.512802) to (114.37642 59.982022 112.73503)
  create_atoms CPU = 0.000 seconds
create_atoms 4 single 97.11468 45.2181 74.44274315186247
Created 1 atoms
  using lattice units in orthogonal box = (68.195723 16.754678 67.512802) to (114.37642 59.982022 112.73503)
  create_atoms CPU = 0.000 seconds
create_atoms 1 single 81.86784 48.3047 72.2018999426934
Created 1 atoms
  using lattice units in orthogonal box = (68.195723 16.754678 67.512802) to (114.37642 59.982022 112.73503)
  create_atoms CPU = 0.000 seconds
create_atoms 2 single 81.50628 50.0154 74.16738040114613
Created 1 atoms
  using lattice units in orthogonal box = (68.195723 16.754678 67.512802) to (114.37642 59.982022 112.73503)
  create_atoms CPU = 0.000 seconds
create_atoms 1 single 85.02538 48.9366 73.57408928366762
Created 1 atoms
  using lattice units in orthogonal box = (68.195723 16.754678 67.512802) to (114.37642 59.982022 112.73503)
  create_atoms CPU = 0.000 seconds
create_atoms 2 single 87.16246000000001 22.6264 79.24866395415474
Created 1 atoms
  using lattice units in orthogonal box = (68.195723 16.754678 67.512802) to (114.37642 59.982022 112.73503)
  create_atoms CPU = 0.000 seconds
create_atoms 1 single 89.64066 23.4217 78.95806166189112
Created 1 atoms
  using lattice units in orthogonal box = (68.195723 16.754678 67.512802) to (114.37642 59.982022 112.73503)
  create_atoms CPU = 0.000 seconds
create_atoms 1 single 75.44446 26.8078 78.3143224068768
Created 1 atoms
  using lattice units in orthogonal box = (68.195723 16.754678 67.512802) to (114.37642 59.982022 112.73503)
  create_atoms CPU = 0.000 seconds
create_atoms 3 single 77.56402 25.184 77.95372332378224
Created 1 atoms
  using lattice units in orthogonal box = (68.195723 16.754678 67.512802) to (114.37642 59.982022 112.73503)
  create_atoms CPU = 0.000 seconds
create_atoms 3 single 77.54034 27.7613 77.63663575931233
Created 1 atoms
  using lattice units in orthogonal box = (68.195723 16.754678 67.512802) to (114.37642 59.982022 112.73503)
  create_atoms CPU = 0.000 seconds
create_atoms 1 single 79.73816 26.4182 77.1645252722063
Created 1 atoms
  using lattice units in orthogonal box = (68.195723 16.754678 67.512802) to (114.37642 59.982022 112.73503)
  create_atoms CPU = 0.000 seconds
create_atoms 1 single 80.30418 23.9642 79.33831449856734
Created 1 atoms
  using lattice units in orthogonal box = (68.195723 16.754678 67.512802) to (114.37642 59.982022 112.73503)
  create_atoms CPU = 0.000 seconds
create_atoms 2 single 85.5527 24.263 79.80474957020058
Created 1 atoms
  using lattice units in orthogonal box = (68.195723 16.754678 67.512802) to (114.37642 59.982022 112.73503)
  create_atoms CPU = 0.000 seconds
create_atoms 1 single 82.10288 25.5922 75.71288011461318
Created 1 atoms
  using lattice units in orthogonal box = (68.195723 16.754678 67.512802) to (114.37642 59.982022 112.73503)
  create_atoms CPU = 0.000 seconds
create_atoms 3 single 82.09518 27.8257 77.4228617765043
Created 1 atoms
  using lattice units in orthogonal box = (68.195723 16.754678 67.512802) to (114.37642 59.982022 112.73503)
  create_atoms CPU = 0.000 seconds
create_atoms 4 single 84.8307 24.0573 76.92500171919771
Created 1 atoms
  using lattice units in orthogonal box = (68.195723 16.754678 67.512802) to (114.37642 59.982022 112.73503)
  create_atoms CPU = 0.000 seconds
create_atoms 1 single 82.7603 25.1262 78.66598796561605
Created 1 atoms
  using lattice units in orthogonal box = (68.195723 16.754678 67.512802) to (114.37642 59.982022 112.73503)
  create_atoms CPU = 0.000 seconds
create_atoms 1 single 84.83384 27.1441 77.39280309455587
Created 1 atoms
  using lattice units in orthogonal box = (68.195723 16.754678 67.512802) to (114.37642 59.982022 112.73503)
  create_atoms CPU = 0.000 seconds
create_atoms 3 single 87.94726 23.8627 76.21652068767908
Created 1 atoms
  using lattice units in orthogonal box = (68.195723 16.754678 67.512802) to (114.37642 59.982022 112.73503)
  create_atoms CPU = 0.000 seconds
create_atoms 1 single 86.20902000000001 26.0614 75.3761387965616
Created 1 atoms
  using lattice units in orthogonal box = (68.195723 16.754678 67.512802) to (114.37642 59.982022 112.73503)
  create_atoms CPU = 0.000 seconds
create_atoms 4 single 87.26952000000001 25.3373 78.54333593123211
Created 1 atoms
  using lattice units in orthogonal box = (68.195723 16.754678 67.512802) to (114.37642 59.982022 112.73503)
  create_atoms CPU = 0.000 seconds
create_atoms 1 single 90.98128 23.996 76.8427081948424
Created 1 atoms
  using lattice units in orthogonal box = (68.195723 16.754678 67.512802) to (114.37642 59.982022 112.73503)
  create_atoms CPU = 0.000 seconds
create_atoms 3 single 89.29922 25.8244 77.46816
Created 1 atoms
  using lattice units in orthogonal box = (68.195723 16.754678 67.512802) to (114.37642 59.982022 112.73503)
  create_atoms CPU = 0.000 seconds
create_atoms 4 single 87.89958 27.9109 77.4990594842407
Created 1 atoms
  using lattice units in orthogonal box = (68.195723 16.754678 67.512802) to (114.37642 59.982022 112.73503)
  create_atoms CPU = 0.000 seconds
create_atoms 2 single 91.97174000000001 25.1436 79.46327873925502
Created 1 atoms
  using lattice units in orthogonal box = (68.195723 16.754678 67.512802) to (114.37642 59.982022 112.73503)
  create_atoms CPU = 0.000 seconds
create_atoms 1 single 91.45126 26.9524 76.98532928366762
Created 1 atoms
  using lattice units in orthogonal box = (68.195723 16.754678 67.512802) to (114.37642 59.982022 112.73503)
  create_atoms CPU = 0.000 seconds
create_atoms 1 single 94.11576000000001 26.6698 75.92907140401147
Created 1 atoms
  using lattice units in orthogonal box = (68.195723 16.754678 67.512802) to (114.37642 59.982022 112.73503)
  create_atoms CPU = 0.000 seconds
create_atoms 1 single 94.07446 25.0994 78.35373501432665
Created 1 atoms
  using lattice units in orthogonal box = (68.195723 16.754678 67.512802) to (114.37642 59.982022 112.73503)
  create_atoms CPU = 0.000 seconds
create_atoms 3 single 93.7699 28.4522 77.61761260744986
Created 1 atoms
  using lattice units in orthogonal box = (68.195723 16.754678 67.512802) to (114.37642 59.982022 112.73503)
  create_atoms CPU = 0.000 seconds
create_atoms 1 single 96.99482 26.5229 78.42299610315186
Created 1 atoms
  using lattice units in orthogonal box = (68.195723 16.754678 67.512802) to (114.37642 59.982022 112.73503)
  create_atoms CPU = 0.000 seconds
create_atoms 3 single 99.89304000000001 27.065 79.38392802292263
Created 1 atoms
  using lattice units in orthogonal box = (68.195723 16.754678 67.512802) to (114.37642 59.982022 112.73503)
  create_atoms CPU = 0.000 seconds
create_atoms 5 single 71.61176 30.2144 79.7037481948424
Created 1 atoms
  using lattice units in orthogonal box = (68.195723 16.754678 67.512802) to (114.37642 59.982022 112.73503)
  create_atoms CPU = 0.000 seconds
create_atoms 1 single 75.22236000000001 29.3477 76.68736997134671
Created 1 atoms
  using lattice units in orthogonal box = (68.195723 16.754678 67.512802) to (114.37642 59.982022 112.73503)
  create_atoms CPU = 0.000 seconds
create_atoms 1 single 74.86934 32.2291 76.15209421203438
Created 1 atoms
  using lattice units in orthogonal box = (68.195723 16.754678 67.512802) to (114.37642 59.982022 112.73503)
  create_atoms CPU = 0.000 seconds
create_atoms 1 single 74.2043 29.3183 79.22774899713467
Created 1 atoms
  using lattice units in orthogonal box = (68.195723 16.754678 67.512802) to (114.37642 59.982022 112.73503)
  create_atoms CPU = 0.000 seconds
create_atoms 2 single 75.8222 31.5057 79.06852206303725
Created 1 atoms
  using lattice units in orthogonal box = (68.195723 16.754678 67.512802) to (114.37642 59.982022 112.73503)
  create_atoms CPU = 0.000 seconds
create_atoms 1 single 72.91392 32.2351 78.38358349570201
Created 1 atoms
  using lattice units in orthogonal box = (68.195723 16.754678 67.512802) to (114.37642 59.982022 112.73503)
  create_atoms CPU = 0.000 seconds
create_atoms 1 single 77.80712000000001 28.7317 75.37403679083096
Created 1 atoms
  using lattice units in orthogonal box = (68.195723 16.754678 67.512802) to (114.37642 59.982022 112.73503)
  create_atoms CPU = 0.000 seconds
create_atoms 1 single 80.67254000000001 30.2662 76.61768848137537
Created 1 atoms
  using lattice units in orthogonal box = (68.195723 16.754678 67.512802) to (114.37642 59.982022 112.73503)
  create_atoms CPU = 0.000 seconds
create_atoms 1 single 77.92224 30.9282 77.36968103151862
Created 1 atoms
  using lattice units in orthogonal box = (68.195723 16.754678 67.512802) to (114.37642 59.982022 112.73503)
  create_atoms CPU = 0.000 seconds
create_atoms 1 single 79.48902 32.4981 74.68247690544413
Created 1 atoms
  using lattice units in orthogonal box = (68.195723 16.754678 67.512802) to (114.37642 59.982022 112.73503)
  create_atoms CPU = 0.000 seconds
create_atoms 3 single 79.82509999999999 28.9009 78.43897134670486
Created 1 atoms
  using lattice units in orthogonal box = (68.195723 16.754678 67.512802) to (114.37642 59.982022 112.73503)
  create_atoms CPU = 0.000 seconds
create_atoms 1 single 80.31302 33.0406 77.80921042979942
Created 1 atoms
  using lattice units in orthogonal box = (68.195723 16.754678 67.512802) to (114.37642 59.982022 112.73503)
  create_atoms CPU = 0.000 seconds
create_atoms 1 single 82.09506 30.6003 79.77942040114613
Created 1 atoms
  using lattice units in orthogonal box = (68.195723 16.754678 67.512802) to (114.37642 59.982022 112.73503)
  create_atoms CPU = 0.000 seconds
create_atoms 1 single 83.28664 29.6144 76.10112057306591
Created 1 atoms
  using lattice units in orthogonal box = (68.195723 16.754678 67.512802) to (114.37642 59.982022 112.73503)
  create_atoms CPU = 0.000 seconds
create_atoms 2 single 82.38586000000001 32.2711 75.13188573065904
Created 1 atoms
  using lattice units in orthogonal box = (68.195723 16.754678 67.512802) to (114.37642 59.982022 112.73503)
  create_atoms CPU = 0.000 seconds
create_atoms 1 single 85.2229 31.798 75.83668825214899
Created 1 atoms
  using lattice units in orthogonal box = (68.195723 16.754678 67.512802) to (114.37642 59.982022 112.73503)
  create_atoms CPU = 0.000 seconds
create_atoms 2 single 84.12599999999999 29.2523 78.95238624641834
Created 1 atoms
  using lattice units in orthogonal box = (68.195723 16.754678 67.512802) to (114.37642 59.982022 112.73503)
  create_atoms CPU = 0.000 seconds
create_atoms 1 single 83.71326 31.998 78.17821753581661
Created 1 atoms
  using lattice units in orthogonal box = (68.195723 16.754678 67.512802) to (114.37642 59.982022 112.73503)
  create_atoms CPU = 0.000 seconds
create_atoms 1 single 86.72864 32.9023 78.85264607449857
Created 1 atoms
  using lattice units in orthogonal box = (68.195723 16.754678 67.512802) to (114.37642 59.982022 112.73503)
  create_atoms CPU = 0.000 seconds
create_atoms 2 single 86.12888000000001 30.0268 78.08499358166189
Created 1 atoms
  using lattice units in orthogonal box = (68.195723 16.754678 67.512802) to (114.37642 59.982022 112.73503)
  create_atoms CPU = 0.000 seconds
create_atoms 2 single 85.74502 28.9799 75.56164080229227
Created 1 atoms
  using lattice units in orthogonal box = (68.195723 16.754678 67.512802) to (114.37642 59.982022 112.73503)
  create_atoms CPU = 0.000 seconds
create_atoms 1 single 88.6638 28.7673 75.0226865329513
Created 1 atoms
  using lattice units in orthogonal box = (68.195723 16.754678 67.512802) to (114.37642 59.982022 112.73503)
  create_atoms CPU = 0.000 seconds
create_atoms 1 single 88.22416 30.7481 76.97008974212034
Created 1 atoms
  using lattice units in orthogonal box = (68.195723 16.754678 67.512802) to (114.37642 59.982022 112.73503)
  create_atoms CPU = 0.000 seconds
create_atoms 4 single 90.60188000000001 28.8362 78.68353971346706
Created 1 atoms
  using lattice units in orthogonal box = (68.195723 16.754678 67.512802) to (114.37642 59.982022 112.73503)
  create_atoms CPU = 0.000 seconds
create_atoms 4 single 91.05404 32.3234 77.6502987965616
Created 1 atoms
  using lattice units in orthogonal box = (68.195723 16.754678 67.512802) to (114.37642 59.982022 112.73503)
  create_atoms CPU = 0.000 seconds
create_atoms 3 single 95.05392 32.5755 75.6746236103152
Created 1 atoms
  using lattice units in orthogonal box = (68.195723 16.754678 67.512802) to (114.37642 59.982022 112.73503)
  create_atoms CPU = 0.000 seconds
create_atoms 4 single 91.41334 29.9702 76.41537042979942
Created 1 atoms
  using lattice units in orthogonal box = (68.195723 16.754678 67.512802) to (114.37642 59.982022 112.73503)
  create_atoms CPU = 0.000 seconds
create_atoms 1 single 93.53528000000001 29.499 75.01659071633237
Created 1 atoms
  using lattice units in orthogonal box = (68.195723 16.754678 67.512802) to (114.37642 59.982022 112.73503)
  create_atoms CPU = 0.000 seconds
create_atoms 1 single 92.06742 32.4645 75.13703564469914
Created 1 atoms
  using lattice units in orthogonal box = (68.195723 16.754678 67.512802) to (114.37642 59.982022 112.73503)
  create_atoms CPU = 0.000 seconds
create_atoms 1 single 94.63248 31.1311 77.66143942693411
Created 1 atoms
  using lattice units in orthogonal box = (68.195723 16.754678 67.512802) to (114.37642 59.982022 112.73503)
  create_atoms CPU = 0.000 seconds
create_atoms 4 single 93.10116000000001 30.311 79.34062670487106
Created 1 atoms
  using lattice units in orthogonal box = (68.195723 16.754678 67.512802) to (114.37642 59.982022 112.73503)
  create_atoms CPU = 0.000 seconds
create_atoms 3 single 96.11498 28.8756 77.06026578796562
Created 1 atoms
  using lattice units in orthogonal box = (68.195723 16.754678 67.512802) to (114.37642 59.982022 112.73503)
  create_atoms CPU = 0.000 seconds
create_atoms 3 single 97.21506 31.13 77.5402587965616
Created 1 atoms
  using lattice units in orthogonal box = (68.195723 16.754678 67.512802) to (114.37642 59.982022 112.73503)
  create_atoms CPU = 0.000 seconds
create_atoms 1 single 96.30316 30.6328 74.80502383954155
Created 1 atoms
  using lattice units in orthogonal box = (68.195723 16.754678 67.512802) to (114.37642 59.982022 112.73503)
  create_atoms CPU = 0.000 seconds
create_atoms 1 single 98.90115999999999 29.262 76.93277914040115
Created 1 atoms
  using lattice units in orthogonal box = (68.195723 16.754678 67.512802) to (114.37642 59.982022 112.73503)
  create_atoms CPU = 0.000 seconds
create_atoms 3 single 97.63992 33.015 76.15966143266476
Created 1 atoms
  using lattice units in orthogonal box = (68.195723 16.754678 67.512802) to (114.37642 59.982022 112.73503)
  create_atoms CPU = 0.000 seconds
create_atoms 5 single 99.37895999999999 31.6255 75.41197799426934
Created 1 atoms
  using lattice units in orthogonal box = (68.195723 16.754678 67.512802) to (114.37642 59.982022 112.73503)
  create_atoms CPU = 0.000 seconds
create_atoms 5 single 98.58798 29.3114 79.45865432664756
Created 1 atoms
  using lattice units in orthogonal box = (68.195723 16.754678 67.512802) to (114.37642 59.982022 112.73503)
  create_atoms CPU = 0.000 seconds
create_atoms 1 single 99.86982 32.1264 78.46451071633238
Created 1 atoms
  using lattice units in orthogonal box = (68.195723 16.754678 67.512802) to (114.37642 59.982022 112.73503)
  create_atoms CPU = 0.000 seconds
create_atoms 1 single 101.7115 29.8015 79.58771747851003
Created 1 atoms
  using lattice units in orthogonal box = (68.195723 16.754678 67.512802) to (114.37642 59.982022 112.73503)
  create_atoms CPU = 0.000 seconds
create_atoms 3 single 102.83692 32.2138 78.95900756446993
Created 1 atoms
  using lattice units in orthogonal box = (68.195723 16.754678 67.512802) to (114.37642 59.982022 112.73503)
  create_atoms CPU = 0.000 seconds
create_atoms 1 single 71.82684 37.0667 77.26825925501434
Created 1 atoms
  using lattice units in orthogonal box = (68.195723 16.754678 67.512802) to (114.37642 59.982022 112.73503)
  create_atoms CPU = 0.000 seconds
create_atoms 5 single 70.48956 38.0601 79.31014762177651
Created 1 atoms
  using lattice units in orthogonal box = (68.195723 16.754678 67.512802) to (114.37642 59.982022 112.73503)
  create_atoms CPU = 0.000 seconds
create_atoms 1 single 73.60604000000001 34.632 77.08853776504299
Created 1 atoms
  using lattice units in orthogonal box = (68.195723 16.754678 67.512802) to (114.37642 59.982022 112.73503)
  create_atoms CPU = 0.000 seconds
create_atoms 2 single 75.00174 34.8164 75.22038017191977
Created 1 atoms
  using lattice units in orthogonal box = (68.195723 16.754678 67.512802) to (114.37642 59.982022 112.73503)
  create_atoms CPU = 0.000 seconds
create_atoms 1 single 73.53620000000001 37.1427 75.3164418338109
Created 1 atoms
  using lattice units in orthogonal box = (68.195723 16.754678 67.512802) to (114.37642 59.982022 112.73503)
  create_atoms CPU = 0.000 seconds
create_atoms 2 single 74.55792000000001 36.612 79.03625627507164
Created 1 atoms
  using lattice units in orthogonal box = (68.195723 16.754678 67.512802) to (114.37642 59.982022 112.73503)
  create_atoms CPU = 0.000 seconds
create_atoms 1 single 76.2699 36.4563 77.68067277936963
Created 1 atoms
  using lattice units in orthogonal box = (68.195723 16.754678 67.512802) to (114.37642 59.982022 112.73503)
  create_atoms CPU = 0.000 seconds
create_atoms 3 single 72.6618 35.1056 79.38224641833811
Created 1 atoms
  using lattice units in orthogonal box = (68.195723 16.754678 67.512802) to (114.37642 59.982022 112.73503)
  create_atoms CPU = 0.000 seconds
create_atoms 1 single 77.17836 33.6774 78.53871151862465
Created 1 atoms
  using lattice units in orthogonal box = (68.195723 16.754678 67.512802) to (114.37642 59.982022 112.73503)
  create_atoms CPU = 0.000 seconds
create_atoms 5 single 77.43532 33.6528 75.78340240687679
Created 1 atoms
  using lattice units in orthogonal box = (68.195723 16.754678 67.512802) to (114.37642 59.982022 112.73503)
  create_atoms CPU = 0.000 seconds
create_atoms 3 single 79.71966 35.2129 75.72517684813754
Created 1 atoms
  using lattice units in orthogonal box = (68.195723 16.754678 67.512802) to (114.37642 59.982022 112.73503)
  create_atoms CPU = 0.000 seconds
create_atoms 1 single 77.03196 36.686 75.15816080229227
Created 1 atoms
  using lattice units in orthogonal box = (68.195723 16.754678 67.512802) to (114.37642 59.982022 112.73503)
  create_atoms CPU = 0.000 seconds
create_atoms 1 single 79.86512 37.7594 77.11239553008596
Created 1 atoms
  using lattice units in orthogonal box = (68.195723 16.754678 67.512802) to (114.37642 59.982022 112.73503)
  create_atoms CPU = 0.000 seconds
create_atoms 3 single 78.78656000000001 35.4865 77.64220607449856
Created 1 atoms
  using lattice units in orthogonal box = (68.195723 16.754678 67.512802) to (114.37642 59.982022 112.73503)
  create_atoms CPU = 0.000 seconds
create_atoms 3 single 81.54958 35.6021 78.28573512893983
Created 1 atoms
  using lattice units in orthogonal box = (68.195723 16.754678 67.512802) to (114.37642 59.982022 112.73503)
  create_atoms CPU = 0.000 seconds
create_atoms 1 single 79.03384000000001 37.6388 79.63827071633239
Created 1 atoms
  using lattice units in orthogonal box = (68.195723 16.754678 67.512802) to (114.37642 59.982022 112.73503)
  create_atoms CPU = 0.000 seconds
create_atoms 3 single 82.12478 34.035 76.67086922636103
Created 1 atoms
  using lattice units in orthogonal box = (68.195723 16.754678 67.512802) to (114.37642 59.982022 112.73503)
  create_atoms CPU = 0.000 seconds
create_atoms 1 single 84.65438 34.5699 76.21473398280803
Created 1 atoms
  using lattice units in orthogonal box = (68.195723 16.754678 67.512802) to (114.37642 59.982022 112.73503)
  create_atoms CPU = 0.000 seconds
create_atoms 1 single 82.41068 36.6018 76.05813455587392
Created 1 atoms
  using lattice units in orthogonal box = (68.195723 16.754678 67.512802) to (114.37642 59.982022 112.73503)
  create_atoms CPU = 0.000 seconds
create_atoms 5 single 84.55424000000001 35.2075 78.85317157593124
Created 1 atoms
  using lattice units in orthogonal box = (68.195723 16.754678 67.512802) to (114.37642 59.982022 112.73503)
  create_atoms CPU = 0.000 seconds
create_atoms 3 single 85.34958 37.2817 77.68561249283668
Created 1 atoms
  using lattice units in orthogonal box = (68.195723 16.754678 67.512802) to (114.37642 59.982022 112.73503)
  create_atoms CPU = 0.000 seconds
create_atoms 1 single 83.13858 37.9208 78.78496148997134
Created 1 atoms
  using lattice units in orthogonal box = (68.195723 16.754678 67.512802) to (114.37642 59.982022 112.73503)
  create_atoms CPU = 0.000 seconds
create_atoms 1 single 86.64918 36.5758 75.67031449856734
Created 1 atoms
  using lattice units in orthogonal box = (68.195723 16.754678 67.512802) to (114.37642 59.982022 112.73503)
  create_atoms CPU = 0.000 seconds
create_atoms 3 single 87.1387 35.477 78.25767335243553
Created 1 atoms
  using lattice units in orthogonal box = (68.195723 16.754678 67.512802) to (114.37642 59.982022 112.73503)
  create_atoms CPU = 0.000 seconds
create_atoms 1 single 88.14178 33.7033 76.82063713467048
Created 1 atoms
  using lattice units in orthogonal box = (68.195723 16.754678 67.512802) to (114.37642 59.982022 112.73503)
  create_atoms CPU = 0.000 seconds
create_atoms 1 single 89.62198 36.2661 78.01878040114613
Created 1 atoms
  using lattice units in orthogonal box = (68.195723 16.754678 67.512802) to (114.37642 59.982022 112.73503)
  create_atoms CPU = 0.000 seconds
create_atoms 5 single 90.29038 37.4234 75.4664199426934
Created 1 atoms
  using lattice units in orthogonal box = (68.195723 16.754678 67.512802) to (114.37642 59.982022 112.73503)
  create_atoms CPU = 0.000 seconds
create_atoms 2 single 88.07192 37.8451 79.23331931232092
Created 1 atoms
  using lattice units in orthogonal box = (68.195723 16.754678 67.512802) to (114.37642 59.982022 112.73503)
  create_atoms CPU = 0.000 seconds
create_atoms 4 single 91.17718 34.7122 76.46592366762178
Created 1 atoms
  using lattice units in orthogonal box = (68.195723 16.754678 67.512802) to (114.37642 59.982022 112.73503)
  create_atoms CPU = 0.000 seconds
create_atoms 3 single 93.98502 33.8951 77.21118979942693
Created 1 atoms
  using lattice units in orthogonal box = (68.195723 16.754678 67.512802) to (114.37642 59.982022 112.73503)
  create_atoms CPU = 0.000 seconds
create_atoms 1 single 93.47166 36.3191 76.04415621776504
Created 1 atoms
  using lattice units in orthogonal box = (68.195723 16.754678 67.512802) to (114.37642 59.982022 112.73503)
  create_atoms CPU = 0.000 seconds
create_atoms 2 single 94.74282000000001 35.6021 79.24225283667622
Created 1 atoms
  using lattice units in orthogonal box = (68.195723 16.754678 67.512802) to (114.37642 59.982022 112.73503)
  create_atoms CPU = 0.000 seconds
create_atoms 4 single 92.29458 34.6323 79.335686991404
Created 1 atoms
  using lattice units in orthogonal box = (68.195723 16.754678 67.512802) to (114.37642 59.982022 112.73503)
  create_atoms CPU = 0.000 seconds
create_atoms 4 single 92.4723 37.1684 78.26030085959886
Created 1 atoms
  using lattice units in orthogonal box = (68.195723 16.754678 67.512802) to (114.37642 59.982022 112.73503)
  create_atoms CPU = 0.000 seconds
create_atoms 1 single 96.83234 33.6573 78.32819564469915
Created 1 atoms
  using lattice units in orthogonal box = (68.195723 16.754678 67.512802) to (114.37642 59.982022 112.73503)
  create_atoms CPU = 0.000 seconds
create_atoms 1 single 96.14902000000001 35.3001 75.60157891117478
Created 1 atoms
  using lattice units in orthogonal box = (68.195723 16.754678 67.512802) to (114.37642 59.982022 112.73503)
  create_atoms CPU = 0.000 seconds
create_atoms 1 single 96.5585 36.5891 78.19881719197707
Created 1 atoms
  using lattice units in orthogonal box = (68.195723 16.754678 67.512802) to (114.37642 59.982022 112.73503)
  create_atoms CPU = 0.000 seconds
create_atoms 2 single 98.3262 37.8352 77.03956103151863
Created 1 atoms
  using lattice units in orthogonal box = (68.195723 16.754678 67.512802) to (114.37642 59.982022 112.73503)
  create_atoms CPU = 0.000 seconds
create_atoms 1 single 100.17458 37.0879 75.90258613180517
Created 1 atoms
  using lattice units in orthogonal box = (68.195723 16.754678 67.512802) to (114.37642 59.982022 112.73503)
  create_atoms CPU = 0.000 seconds
create_atoms 1 single 99.30908 35.224 77.95939873925501
Created 1 atoms
  using lattice units in orthogonal box = (68.195723 16.754678 67.512802) to (114.37642 59.982022 112.73503)
  create_atoms CPU = 0.000 seconds
create_atoms 1 single 100.89620000000001 37.682 79.47368366762178
Created 1 atoms
  using lattice units in orthogonal box = (68.195723 16.754678 67.512802) to (114.37642 59.982022 112.73503)
  create_atoms CPU = 0.000 seconds
create_atoms 1 single 101.319 33.8858 76.88243610315186
Created 1 atoms
  using lattice units in orthogonal box = (68.195723 16.754678 67.512802) to (114.37642 59.982022 112.73503)
  create_atoms CPU = 0.000 seconds
create_atoms 2 single 102.57386 36.2935 78.06576022922637
Created 1 atoms
  using lattice units in orthogonal box = (68.195723 16.754678 67.512802) to (114.37642 59.982022 112.73503)
  create_atoms CPU = 0.000 seconds
create_atoms 1 single 71.1409 41.0096 79.33127277936963
Created 1 atoms
  using lattice units in orthogonal box = (68.195723 16.754678 67.512802) to (114.37642 59.982022 112.73503)
  create_atoms CPU = 0.000 seconds
create_atoms 1 single 72.88028 42.625 77.79491679083095
Created 1 atoms
  using lattice units in orthogonal box = (68.195723 16.754678 67.512802) to (114.37642 59.982022 112.73503)
  create_atoms CPU = 0.000 seconds
create_atoms 5 single 71.68858 39.9821 76.83430017191978
Created 1 atoms
  using lattice units in orthogonal box = (68.195723 16.754678 67.512802) to (114.37642 59.982022 112.73503)
  create_atoms CPU = 0.000 seconds
create_atoms 2 single 74.25888 38.9231 77.40131621776504
Created 1 atoms
  using lattice units in orthogonal box = (68.195723 16.754678 67.512802) to (114.37642 59.982022 112.73503)
  create_atoms CPU = 0.000 seconds
create_atoms 1 single 74.26812 41.1907 75.78497891117478
Created 1 atoms
  using lattice units in orthogonal box = (68.195723 16.754678 67.512802) to (114.37642 59.982022 112.73503)
  create_atoms CPU = 0.000 seconds
create_atoms 4 single 75.65082 41.3066 78.75143449856733
Created 1 atoms
  using lattice units in orthogonal box = (68.195723 16.754678 67.512802) to (114.37642 59.982022 112.73503)
  create_atoms CPU = 0.000 seconds
create_atoms 1 single 73.3646 38.8 79.75797994269341
Created 1 atoms
  using lattice units in orthogonal box = (68.195723 16.754678 67.512802) to (114.37642 59.982022 112.73503)
  create_atoms CPU = 0.000 seconds
create_atoms 3 single 76.35866 41.0826 74.74669318051576
Created 1 atoms
  using lattice units in orthogonal box = (68.195723 16.754678 67.512802) to (114.37642 59.982022 112.73503)
  create_atoms CPU = 0.000 seconds
create_atoms 2 single 77.17132 42.2039 77.10976802292264
Created 1 atoms
  using lattice units in orthogonal box = (68.195723 16.754678 67.512802) to (114.37642 59.982022 112.73503)
  create_atoms CPU = 0.000 seconds
create_atoms 1 single 79.43696 40.7561 76.62378429799428
Created 1 atoms
  using lattice units in orthogonal box = (68.195723 16.754678 67.512802) to (114.37642 59.982022 112.73503)
  create_atoms CPU = 0.000 seconds
create_atoms 1 single 76.81402 39.2145 76.85174681948423
Created 1 atoms
  using lattice units in orthogonal box = (68.195723 16.754678 67.512802) to (114.37642 59.982022 112.73503)
  create_atoms CPU = 0.000 seconds
create_atoms 5 single 81.1914 39.6525 79.54462636103152
Created 1 atoms
  using lattice units in orthogonal box = (68.195723 16.754678 67.512802) to (114.37642 59.982022 112.73503)
  create_atoms CPU = 0.000 seconds
create_atoms 4 single 78.43638 40.6155 79.42449673352436
Created 1 atoms
  using lattice units in orthogonal box = (68.195723 16.754678 67.512802) to (114.37642 59.982022 112.73503)
  create_atoms CPU = 0.000 seconds
create_atoms 4 single 80.10226 42.5956 78.8913229799427
Created 1 atoms
  using lattice units in orthogonal box = (68.195723 16.754678 67.512802) to (114.37642 59.982022 112.73503)
  create_atoms CPU = 0.000 seconds
create_atoms 2 single 82.31494 41.3286 78.25777845272206
Created 1 atoms
  using lattice units in orthogonal box = (68.195723 16.754678 67.512802) to (114.37642 59.982022 112.73503)
  create_atoms CPU = 0.000 seconds
create_atoms 2 single 81.57624 39.1731 76.13738017191977
Created 1 atoms
  using lattice units in orthogonal box = (68.195723 16.754678 67.512802) to (114.37642 59.982022 112.73503)
  create_atoms CPU = 0.000 seconds
create_atoms 4 single 84.3377 38.8988 75.6905988538682
Created 1 atoms
  using lattice units in orthogonal box = (68.195723 16.754678 67.512802) to (114.37642 59.982022 112.73503)
  create_atoms CPU = 0.000 seconds
create_atoms 1 single 82.52706 41.4257 75.58013845272207
Created 1 atoms
  using lattice units in orthogonal box = (68.195723 16.754678 67.512802) to (114.37642 59.982022 112.73503)
  create_atoms CPU = 0.000 seconds
create_atoms 3 single 83.80326000000001 43.175 77.59385994269341
Created 1 atoms
  using lattice units in orthogonal box = (68.195723 16.754678 67.512802) to (114.37642 59.982022 112.73503)
  create_atoms CPU = 0.000 seconds
create_atoms 1 single 85.6406 41.9581 76.1661776504298
Created 1 atoms
  using lattice units in orthogonal box = (68.195723 16.754678 67.512802) to (114.37642 59.982022 112.73503)
  create_atoms CPU = 0.000 seconds
create_atoms 1 single 84.81778 40.2049 78.28678613180516
Created 1 atoms
  using lattice units in orthogonal box = (68.195723 16.754678 67.512802) to (114.37642 59.982022 112.73503)
  create_atoms CPU = 0.000 seconds
create_atoms 3 single 86.2878 42.6567 78.78054727793696
Created 1 atoms
  using lattice units in orthogonal box = (68.195723 16.754678 67.512802) to (114.37642 59.982022 112.73503)
  create_atoms CPU = 0.000 seconds
create_atoms 4 single 88.60092 38.898 76.65205627507163
Created 1 atoms
  using lattice units in orthogonal box = (68.195723 16.754678 67.512802) to (114.37642 59.982022 112.73503)
  create_atoms CPU = 0.000 seconds
create_atoms 4 single 88.41402 41.5253 75.8443605730659
Created 1 atoms
  using lattice units in orthogonal box = (68.195723 16.754678 67.512802) to (114.37642 59.982022 112.73503)
  create_atoms CPU = 0.000 seconds
create_atoms 1 single 90.74066 38.8503 79.41629891117478
Created 1 atoms
  using lattice units in orthogonal box = (68.195723 16.754678 67.512802) to (114.37642 59.982022 112.73503)
  create_atoms CPU = 0.000 seconds
create_atoms 1 single 87.91524 40.5581 78.6629400573066
Created 1 atoms
  using lattice units in orthogonal box = (68.195723 16.754678 67.512802) to (114.37642 59.982022 112.73503)
  create_atoms CPU = 0.000 seconds
create_atoms 3 single 90.3392 41.5585 78.43003782234956
Created 1 atoms
  using lattice units in orthogonal box = (68.195723 16.754678 67.512802) to (114.37642 59.982022 112.73503)
  create_atoms CPU = 0.000 seconds
create_atoms 2 single 94.5124 38.4776 77.79050257879656
Created 1 atoms
  using lattice units in orthogonal box = (68.195723 16.754678 67.512802) to (114.37642 59.982022 112.73503)
  create_atoms CPU = 0.000 seconds
create_atoms 1 single 91.73062 39.9479 77.1596906590258
Created 1 atoms
  using lattice units in orthogonal box = (68.195723 16.754678 67.512802) to (114.37642 59.982022 112.73503)
  create_atoms CPU = 0.000 seconds
create_atoms 2 single 91.4755 41.6623 75.19872951289398
Created 1 atoms
  using lattice units in orthogonal box = (68.195723 16.754678 67.512802) to (114.37642 59.982022 112.73503)
  create_atoms CPU = 0.000 seconds
create_atoms 1 single 94.85646 41.1203 77.51713673352435
Created 1 atoms
  using lattice units in orthogonal box = (68.195723 16.754678 67.512802) to (114.37642 59.982022 112.73503)
  create_atoms CPU = 0.000 seconds
create_atoms 1 single 92.98192 42.6405 78.91013593123209
Created 1 atoms
  using lattice units in orthogonal box = (68.195723 16.754678 67.512802) to (114.37642 59.982022 112.73503)
  create_atoms CPU = 0.000 seconds
create_atoms 1 single 95.56158 38.5913 75.65717696275071
Created 1 atoms
  using lattice units in orthogonal box = (68.195723 16.754678 67.512802) to (114.37642 59.982022 112.73503)
  create_atoms CPU = 0.000 seconds
create_atoms 1 single 98.42045999999999 39.7139 74.91485363896848
Created 1 atoms
  using lattice units in orthogonal box = (68.195723 16.754678 67.512802) to (114.37642 59.982022 112.73503)
  create_atoms CPU = 0.000 seconds
create_atoms 1 single 99.90428 40.2776 77.91105260744986
Created 1 atoms
  using lattice units in orthogonal box = (68.195723 16.754678 67.512802) to (114.37642 59.982022 112.73503)
  create_atoms CPU = 0.000 seconds
create_atoms 3 single 97.02114 40.9215 76.40328389684814
Created 1 atoms
  using lattice units in orthogonal box = (68.195723 16.754678 67.512802) to (114.37642 59.982022 112.73503)
  create_atoms CPU = 0.000 seconds
create_atoms 1 single 99.26794 42.7653 76.21830739255014
Created 1 atoms
  using lattice units in orthogonal box = (68.195723 16.754678 67.512802) to (114.37642 59.982022 112.73503)
  create_atoms CPU = 0.000 seconds
create_atoms 1 single 97.5359 39.3547 78.89353008595988
Created 1 atoms
  using lattice units in orthogonal box = (68.195723 16.754678 67.512802) to (114.37642 59.982022 112.73503)
  create_atoms CPU = 0.000 seconds
create_atoms 1 single 98.21668000000001 42.5179 78.99411106017193
Created 1 atoms
  using lattice units in orthogonal box = (68.195723 16.754678 67.512802) to (114.37642 59.982022 112.73503)
  create_atoms CPU = 0.000 seconds
create_atoms 3 single 100.93378 42.6566 79.08344630372493
Created 1 atoms
  using lattice units in orthogonal box = (68.195723 16.754678 67.512802) to (114.37642 59.982022 112.73503)
  create_atoms CPU = 0.000 seconds
create_atoms 2 single 102.28386 41.8831 77.62854303724929
Created 1 atoms
  using lattice units in orthogonal box = (68.195723 16.754678 67.512802) to (114.37642 59.982022 112.73503)
  create_atoms CPU = 0.000 seconds
create_atoms 1 single 102.42592 39.0005 77.66364653295129
Created 1 atoms
  using lattice units in orthogonal box = (68.195723 16.754678 67.512802) to (114.37642 59.982022 112.73503)
  create_atoms CPU = 0.000 seconds
create_atoms 1 single 75.62376 46.6588 74.91222613180516
Created 1 atoms
  using lattice units in orthogonal box = (68.195723 16.754678 67.512802) to (114.37642 59.982022 112.73503)
  create_atoms CPU = 0.000 seconds
create_atoms 4 single 72.32598 43.353 74.82793570200575
Created 1 atoms
  using lattice units in orthogonal box = (68.195723 16.754678 67.512802) to (114.37642 59.982022 112.73503)
  create_atoms CPU = 0.000 seconds
create_atoms 2 single 73.25136 45.8356 75.50288974212035
Created 1 atoms
  using lattice units in orthogonal box = (68.195723 16.754678 67.512802) to (114.37642 59.982022 112.73503)
  create_atoms CPU = 0.000 seconds
create_atoms 1 single 75.42328 44.3004 77.33667954154727
Created 1 atoms
  using lattice units in orthogonal box = (68.195723 16.754678 67.512802) to (114.37642 59.982022 112.73503)
  create_atoms CPU = 0.000 seconds
create_atoms 1 single 74.69186 47.9439 77.29117111747851
Created 1 atoms
  using lattice units in orthogonal box = (68.195723 16.754678 67.512802) to (114.37642 59.982022 112.73503)
  create_atoms CPU = 0.000 seconds
create_atoms 1 single 73.22608000000001 45.644 78.31253570200575
Created 1 atoms
  using lattice units in orthogonal box = (68.195723 16.754678 67.512802) to (114.37642 59.982022 112.73503)
  create_atoms CPU = 0.000 seconds
create_atoms 2 single 80.50102 45.9814 75.00881329512893
Created 1 atoms
  using lattice units in orthogonal box = (68.195723 16.754678 67.512802) to (114.37642 59.982022 112.73503)
  create_atoms CPU = 0.000 seconds
create_atoms 4 single 78.11304 44.5104 76.58826040114613
Created 1 atoms
  using lattice units in orthogonal box = (68.195723 16.754678 67.512802) to (114.37642 59.982022 112.73503)
  create_atoms CPU = 0.000 seconds
create_atoms 1 single 80.92066000000001 43.515 76.41200722063039
Created 1 atoms
  using lattice units in orthogonal box = (68.195723 16.754678 67.512802) to (114.37642 59.982022 112.73503)
  create_atoms CPU = 0.000 seconds
create_atoms 2 single 78.3982 47.6133 75.4310011461318
Created 1 atoms
  using lattice units in orthogonal box = (68.195723 16.754678 67.512802) to (114.37642 59.982022 112.73503)
  create_atoms CPU = 0.000 seconds
create_atoms 4 single 77.5354 46.6746 77.74846246418338
Created 1 atoms
  using lattice units in orthogonal box = (68.195723 16.754678 67.512802) to (114.37642 59.982022 112.73503)
  create_atoms CPU = 0.000 seconds
create_atoms 4 single 80.25062000000001 46.2135 77.35780469914042
Created 1 atoms
  using lattice units in orthogonal box = (68.195723 16.754678 67.512802) to (114.37642 59.982022 112.73503)
  create_atoms CPU = 0.000 seconds
create_atoms 1 single 82.32542000000001 44.5059 79.35838865329514
Created 1 atoms
  using lattice units in orthogonal box = (68.195723 16.754678 67.512802) to (114.37642 59.982022 112.73503)
  create_atoms CPU = 0.000 seconds
create_atoms 2 single 85.1864 46.2748 74.76939484240688
Created 1 atoms
  using lattice units in orthogonal box = (68.195723 16.754678 67.512802) to (114.37642 59.982022 112.73503)
  create_atoms CPU = 0.000 seconds
create_atoms 2 single 85.67576000000001 44.7489 77.00792584527221
Created 1 atoms
  using lattice units in orthogonal box = (68.195723 16.754678 67.512802) to (114.37642 59.982022 112.73503)
  create_atoms CPU = 0.000 seconds
create_atoms 5 single 83.11378 45.71 76.96304802292264
Created 1 atoms
  using lattice units in orthogonal box = (68.195723 16.754678 67.512802) to (114.37642 59.982022 112.73503)
  create_atoms CPU = 0.000 seconds
create_atoms 1 single 83.11212 47.4973 79.23542131805158
Created 1 atoms
  using lattice units in orthogonal box = (68.195723 16.754678 67.512802) to (114.37642 59.982022 112.73503)
  create_atoms CPU = 0.000 seconds
create_atoms 1 single 85.94258 47.2321 78.36193283667622
Created 1 atoms
  using lattice units in orthogonal box = (68.195723 16.754678 67.512802) to (114.37642 59.982022 112.73503)
  create_atoms CPU = 0.000 seconds
create_atoms 1 single 83.41572 47.8484 75.2778700286533
Created 1 atoms
  using lattice units in orthogonal box = (68.195723 16.754678 67.512802) to (114.37642 59.982022 112.73503)
  create_atoms CPU = 0.000 seconds
create_atoms 4 single 85.4332 44.8632 79.62765558739254
Created 1 atoms
  using lattice units in orthogonal box = (68.195723 16.754678 67.512802) to (114.37642 59.982022 112.73503)
  create_atoms CPU = 0.000 seconds
create_atoms 1 single 88.36036 43.6332 77.95960893982809
Created 1 atoms
  using lattice units in orthogonal box = (68.195723 16.754678 67.512802) to (114.37642 59.982022 112.73503)
  create_atoms CPU = 0.000 seconds
create_atoms 1 single 90.53892 43.7588 76.50701787965617
Created 1 atoms
  using lattice units in orthogonal box = (68.195723 16.754678 67.512802) to (114.37642 59.982022 112.73503)
  create_atoms CPU = 0.000 seconds
create_atoms 1 single 87.80272000000001 46.4619 76.66834681948424
Created 1 atoms
  using lattice units in orthogonal box = (68.195723 16.754678 67.512802) to (114.37642 59.982022 112.73503)
  create_atoms CPU = 0.000 seconds
create_atoms 1 single 90.48724 47.2915 76.20884836676218
Created 1 atoms
  using lattice units in orthogonal box = (68.195723 16.754678 67.512802) to (114.37642 59.982022 112.73503)
  create_atoms CPU = 0.000 seconds
create_atoms 1 single 90.80398 45.7655 78.79336951289399
Created 1 atoms
  using lattice units in orthogonal box = (68.195723 16.754678 67.512802) to (114.37642 59.982022 112.73503)
  create_atoms CPU = 0.000 seconds
create_atoms 3 single 89.02364 47.5653 79.27094521489971
Created 1 atoms
  using lattice units in orthogonal box = (68.195723 16.754678 67.512802) to (114.37642 59.982022 112.73503)
  create_atoms CPU = 0.000 seconds
create_atoms 1 single 93.33672 43.6428 76.09817776504298
Created 1 atoms
  using lattice units in orthogonal box = (68.195723 16.754678 67.512802) to (114.37642 59.982022 112.73503)
  create_atoms CPU = 0.000 seconds
create_atoms 2 single 95.46566 43.9345 78.76677914040116
Created 1 atoms
  using lattice units in orthogonal box = (68.195723 16.754678 67.512802) to (114.37642 59.982022 112.73503)
  create_atoms CPU = 0.000 seconds
create_atoms 3 single 91.49616 45.6364 74.84180893982808
Created 1 atoms
  using lattice units in orthogonal box = (68.195723 16.754678 67.512802) to (114.37642 59.982022 112.73503)
  create_atoms CPU = 0.000 seconds
create_atoms 1 single 94.54636 46.0682 75.23961352435529
Created 1 atoms
  using lattice units in orthogonal box = (68.195723 16.754678 67.512802) to (114.37642 59.982022 112.73503)
  create_atoms CPU = 0.000 seconds
create_atoms 2 single 94.82388 48.0012 77.3603271060172
Created 1 atoms
  using lattice units in orthogonal box = (68.195723 16.754678 67.512802) to (114.37642 59.982022 112.73503)
  create_atoms CPU = 0.000 seconds
create_atoms 1 single 93.33444 45.9408 77.86417787965617
Created 1 atoms
  using lattice units in orthogonal box = (68.195723 16.754678 67.512802) to (114.37642 59.982022 112.73503)
  create_atoms CPU = 0.000 seconds
create_atoms 2 single 96.27716 45.9422 77.98378200573066
Created 1 atoms
  using lattice units in orthogonal box = (68.195723 16.754678 67.512802) to (114.37642 59.982022 112.73503)
  create_atoms CPU = 0.000 seconds
create_atoms 1 single 96.2385 43.4905 76.22188080229226
Created 1 atoms
  using lattice units in orthogonal box = (68.195723 16.754678 67.512802) to (114.37642 59.982022 112.73503)
  create_atoms CPU = 0.000 seconds
create_atoms 1 single 98.771 45.2538 77.68067277936963
Created 1 atoms
  using lattice units in orthogonal box = (68.195723 16.754678 67.512802) to (114.37642 59.982022 112.73503)
  create_atoms CPU = 0.000 seconds
create_atoms 1 single 97.20374 47.738 76.36544779369628
Created 1 atoms
  using lattice units in orthogonal box = (68.195723 16.754678 67.512802) to (114.37642 59.982022 112.73503)
  create_atoms CPU = 0.000 seconds
create_atoms 1 single 100.77676 47.5014 79.1120335816619
Created 1 atoms
  using lattice units in orthogonal box = (68.195723 16.754678 67.512802) to (114.37642 59.982022 112.73503)
  create_atoms CPU = 0.000 seconds
create_atoms 1 single 101.8353 44.8487 78.16308309455589
Created 1 atoms
  using lattice units in orthogonal box = (68.195723 16.754678 67.512802) to (114.37642 59.982022 112.73503)
  create_atoms CPU = 0.000 seconds
create_atoms 3 single 75.47394 49.6836 79.47746727793697
Created 1 atoms
  using lattice units in orthogonal box = (68.195723 16.754678 67.512802) to (114.37642 59.982022 112.73503)
  create_atoms CPU = 0.000 seconds
create_atoms 4 single 76.68432 51.6698 78.20701501432664
Created 1 atoms
  using lattice units in orthogonal box = (68.195723 16.754678 67.512802) to (114.37642 59.982022 112.73503)
  create_atoms CPU = 0.000 seconds
create_atoms 1 single 78.78642 50.2338 74.8007147277937
Created 1 atoms
  using lattice units in orthogonal box = (68.195723 16.754678 67.512802) to (114.37642 59.982022 112.73503)
  create_atoms CPU = 0.000 seconds
create_atoms 2 single 79.79336 48.8866 78.10622383954154
Created 1 atoms
  using lattice units in orthogonal box = (68.195723 16.754678 67.512802) to (114.37642 59.982022 112.73503)
  create_atoms CPU = 0.000 seconds
create_atoms 1 single 76.89564 49.4007 76.4022328939828
Created 1 atoms
  using lattice units in orthogonal box = (68.195723 16.754678 67.512802) to (114.37642 59.982022 112.73503)
  create_atoms CPU = 0.000 seconds
create_atoms 1 single 79.28664 51.6468 77.48003633237823
Created 1 atoms
  using lattice units in orthogonal box = (68.195723 16.754678 67.512802) to (114.37642 59.982022 112.73503)
  create_atoms CPU = 0.000 seconds
create_atoms 1 single 78.08696 49.0251 79.61336194842407
Created 1 atoms
  using lattice units in orthogonal box = (68.195723 16.754678 67.512802) to (114.37642 59.982022 112.73503)
  create_atoms CPU = 0.000 seconds
create_atoms 1 single 82.24432 50.3793 79.18707518624643
Created 1 atoms
  using lattice units in orthogonal box = (68.195723 16.754678 67.512802) to (114.37642 59.982022 112.73503)
  create_atoms CPU = 0.000 seconds
create_atoms 1 single 81.23904 48.578 76.38278934097421
Created 1 atoms
  using lattice units in orthogonal box = (68.195723 16.754678 67.512802) to (114.37642 59.982022 112.73503)
  create_atoms CPU = 0.000 seconds
create_atoms 1 single 81.70678000000001 51.7656 76.32193627507164
Created 1 atoms
  using lattice units in orthogonal box = (68.195723 16.754678 67.512802) to (114.37642 59.982022 112.73503)
  create_atoms CPU = 0.000 seconds
create_atoms 1 single 84.2193 51.1033 75.05894613180516
Created 1 atoms
  using lattice units in orthogonal box = (68.195723 16.754678 67.512802) to (114.37642 59.982022 112.73503)
  create_atoms CPU = 0.000 seconds
create_atoms 1 single 84.2593 49.911 77.66070372492837
Created 1 atoms
  using lattice units in orthogonal box = (68.195723 16.754678 67.512802) to (114.37642 59.982022 112.73503)
  create_atoms CPU = 0.000 seconds
create_atoms 3 single 84.11458 53.0581 77.96202624641835
Created 1 atoms
  using lattice units in orthogonal box = (68.195723 16.754678 67.512802) to (114.37642 59.982022 112.73503)
  create_atoms CPU = 0.000 seconds
create_atoms 2 single 86.1496 51.9529 77.56821547277937
Created 1 atoms
  using lattice units in orthogonal box = (68.195723 16.754678 67.512802) to (114.37642 59.982022 112.73503)
  create_atoms CPU = 0.000 seconds
create_atoms 2 single 86.36382 48.9744 76.54275197707736
Created 1 atoms
  using lattice units in orthogonal box = (68.195723 16.754678 67.512802) to (114.37642 59.982022 112.73503)
  create_atoms CPU = 0.000 seconds
create_atoms 2 single 87.92986 48.6181 75.06882555873925
Created 1 atoms
  using lattice units in orthogonal box = (68.195723 16.754678 67.512802) to (114.37642 59.982022 112.73503)
  create_atoms CPU = 0.000 seconds
create_atoms 1 single 87.6557 51.1766 75.98067564469913
Created 1 atoms
  using lattice units in orthogonal box = (68.195723 16.754678 67.512802) to (114.37642 59.982022 112.73503)
  create_atoms CPU = 0.000 seconds
create_atoms 1 single 89.88212 49.3802 77.96948836676218
Created 1 atoms
  using lattice units in orthogonal box = (68.195723 16.754678 67.512802) to (114.37642 59.982022 112.73503)
  create_atoms CPU = 0.000 seconds
create_atoms 1 single 90.23638 50.1837 75.24097982808023
Created 1 atoms
  using lattice units in orthogonal box = (68.195723 16.754678 67.512802) to (114.37642 59.982022 112.73503)
  create_atoms CPU = 0.000 seconds
create_atoms 3 single 91.29574 51.9073 77.4805618338109
Created 1 atoms
  using lattice units in orthogonal box = (68.195723 16.754678 67.512802) to (114.37642 59.982022 112.73503)
  create_atoms CPU = 0.000 seconds
create_atoms 1 single 87.55272000000001 50.0215 79.32580756446991
Created 1 atoms
  using lattice units in orthogonal box = (68.195723 16.754678 67.512802) to (114.37642 59.982022 112.73503)
  create_atoms CPU = 0.000 seconds
create_atoms 1 single 89.63694 52.1587 79.0833412034384
Created 1 atoms
  using lattice units in orthogonal box = (68.195723 16.754678 67.512802) to (114.37642 59.982022 112.73503)
  create_atoms CPU = 0.000 seconds
create_atoms 1 single 92.52696 48.3001 74.89593558739254
Created 1 atoms
  using lattice units in orthogonal box = (68.195723 16.754678 67.512802) to (114.37642 59.982022 112.73503)
  create_atoms CPU = 0.000 seconds
create_atoms 1 single 93.39748 50.7228 76.74076091690544
Created 1 atoms
  using lattice units in orthogonal box = (68.195723 16.754678 67.512802) to (114.37642 59.982022 112.73503)
  create_atoms CPU = 0.000 seconds
create_atoms 2 single 92.65982 48.6452 78.08772618911175
Created 1 atoms
  using lattice units in orthogonal box = (68.195723 16.754678 67.512802) to (114.37642 59.982022 112.73503)
  create_atoms CPU = 0.000 seconds
create_atoms 1 single 94.65528 52.6065 79.12075690544413
Created 1 atoms
  using lattice units in orthogonal box = (68.195723 16.754678 67.512802) to (114.37642 59.982022 112.73503)
  create_atoms CPU = 0.000 seconds
create_atoms 1 single 95.38974 49.7156 79.52949191977078
Created 1 atoms
  using lattice units in orthogonal box = (68.195723 16.754678 67.512802) to (114.37642 59.982022 112.73503)
  create_atoms CPU = 0.000 seconds
create_atoms 2 single 97.40264 51.5285 79.24151713467049
Created 1 atoms
  using lattice units in orthogonal box = (68.195723 16.754678 67.512802) to (114.37642 59.982022 112.73503)
  create_atoms CPU = 0.000 seconds
create_atoms 3 single 96.16568000000001 50.0082 77.14434601719198
Created 1 atoms
  using lattice units in orthogonal box = (68.195723 16.754678 67.512802) to (114.37642 59.982022 112.73503)
  create_atoms CPU = 0.000 seconds
create_atoms 1 single 97.96418000000001 48.3009 79.35933455587393
Created 1 atoms
  using lattice units in orthogonal box = (68.195723 16.754678 67.512802) to (114.37642 59.982022 112.73503)
  create_atoms CPU = 0.000 seconds
create_atoms 3 single 79.30080000000001 53.8008 79.3853994269341
Created 1 atoms
  using lattice units in orthogonal box = (68.195723 16.754678 67.512802) to (114.37642 59.982022 112.73503)
  create_atoms CPU = 0.000 seconds
create_atoms 1 single 82.08036 53.3953 79.21871037249284
Created 1 atoms
  using lattice units in orthogonal box = (68.195723 16.754678 67.512802) to (114.37642 59.982022 112.73503)
  create_atoms CPU = 0.000 seconds
create_atoms 1 single 87.35086 53.7632 79.56449031518625
Created 1 atoms
  using lattice units in orthogonal box = (68.195723 16.754678 67.512802) to (114.37642 59.982022 112.73503)
  create_atoms CPU = 0.000 seconds
create_atoms 1 single 80.27136 22.9583 84.76695449856734
Created 1 atoms
  using lattice units in orthogonal box = (68.195723 16.754678 67.512802) to (114.37642 59.982022 112.73503)
  create_atoms CPU = 0.000 seconds
create_atoms 1 single 81.95756 22.0105 82.40692756446991
Created 1 atoms
  using lattice units in orthogonal box = (68.195723 16.754678 67.512802) to (114.37642 59.982022 112.73503)
  create_atoms CPU = 0.000 seconds
create_atoms 5 single 84.19384000000001 20.2186 84.3126059598854
Created 1 atoms
  using lattice units in orthogonal box = (68.195723 16.754678 67.512802) to (114.37642 59.982022 112.73503)
  create_atoms CPU = 0.000 seconds
create_atoms 1 single 83.5537 22.7206 80.56462464183382
Created 1 atoms
  using lattice units in orthogonal box = (68.195723 16.754678 67.512802) to (114.37642 59.982022 112.73503)
  create_atoms CPU = 0.000 seconds
create_atoms 3 single 84.86408 22.4964 83.39518555873926
Created 1 atoms
  using lattice units in orthogonal box = (68.195723 16.754678 67.512802) to (114.37642 59.982022 112.73503)
  create_atoms CPU = 0.000 seconds
create_atoms 1 single 86.795 22.0881 81.78431346704872
Created 1 atoms
  using lattice units in orthogonal box = (68.195723 16.754678 67.512802) to (114.37642 59.982022 112.73503)
  create_atoms CPU = 0.000 seconds
create_atoms 3 single 87.33508 23.2419 84.2118147851003
Created 1 atoms
  using lattice units in orthogonal box = (68.195723 16.754678 67.512802) to (114.37642 59.982022 112.73503)
  create_atoms CPU = 0.000 seconds
create_atoms 1 single 87.11110000000001 20.6711 84.55423151862463
Created 1 atoms
  using lattice units in orthogonal box = (68.195723 16.754678 67.512802) to (114.37642 59.982022 112.73503)
  create_atoms CPU = 0.000 seconds
create_atoms 1 single 89.8494 19.9973 84.10230028653295
Created 1 atoms
  using lattice units in orthogonal box = (68.195723 16.754678 67.512802) to (114.37642 59.982022 112.73503)
  create_atoms CPU = 0.000 seconds
create_atoms 2 single 89.47586 21.891 81.46365249283669
Created 1 atoms
  using lattice units in orthogonal box = (68.195723 16.754678 67.512802) to (114.37642 59.982022 112.73503)
  create_atoms CPU = 0.000 seconds
create_atoms 1 single 92.37454 21.4044 83.64048962750716
Created 1 atoms
  using lattice units in orthogonal box = (68.195723 16.754678 67.512802) to (114.37642 59.982022 112.73503)
  create_atoms CPU = 0.000 seconds
create_atoms 1 single 89.95414 22.8857 84.14707300859598
Created 1 atoms
  using lattice units in orthogonal box = (68.195723 16.754678 67.512802) to (114.37642 59.982022 112.73503)
  create_atoms CPU = 0.000 seconds
create_atoms 2 single 92.8923 22.7563 79.82366762177651
Created 1 atoms
  using lattice units in orthogonal box = (68.195723 16.754678 67.512802) to (114.37642 59.982022 112.73503)
  create_atoms CPU = 0.000 seconds
create_atoms 3 single 94.73172 19.695 84.36694280802293
Created 1 atoms
  using lattice units in orthogonal box = (68.195723 16.754678 67.512802) to (114.37642 59.982022 112.73503)
  create_atoms CPU = 0.000 seconds
create_atoms 1 single 94.82784 21.7182 82.53483461318052
Created 1 atoms
  using lattice units in orthogonal box = (68.195723 16.754678 67.512802) to (114.37642 59.982022 112.73503)
  create_atoms CPU = 0.000 seconds
create_atoms 1 single 96.26608 23.2778 80.3751288252149
Created 1 atoms
  using lattice units in orthogonal box = (68.195723 16.754678 67.512802) to (114.37642 59.982022 112.73503)
  create_atoms CPU = 0.000 seconds
create_atoms 5 single 96.71972 23.2256 84.80205799426935
Created 1 atoms
  using lattice units in orthogonal box = (68.195723 16.754678 67.512802) to (114.37642 59.982022 112.73503)
  create_atoms CPU = 0.000 seconds
create_atoms 1 single 98.15526000000001 22.0763 83.05487083094556
Created 1 atoms
  using lattice units in orthogonal box = (68.195723 16.754678 67.512802) to (114.37642 59.982022 112.73503)
  create_atoms CPU = 0.000 seconds
create_atoms 1 single 77.13218 24.9875 80.58007438395417
Created 1 atoms
  using lattice units in orthogonal box = (68.195723 16.754678 67.512802) to (114.37642 59.982022 112.73503)
  create_atoms CPU = 0.000 seconds
create_atoms 1 single 73.90598 28.2806 81.98211220630373
Created 1 atoms
  using lattice units in orthogonal box = (68.195723 16.754678 67.512802) to (114.37642 59.982022 112.73503)
  create_atoms CPU = 0.000 seconds
create_atoms 3 single 75.99672 27.4364 80.94960699140401
Created 1 atoms
  using lattice units in orthogonal box = (68.195723 16.754678 67.512802) to (114.37642 59.982022 112.73503)
  create_atoms CPU = 0.000 seconds
create_atoms 3 single 76.57224000000001 27.9242 83.81705810888252
Created 1 atoms
  using lattice units in orthogonal box = (68.195723 16.754678 67.512802) to (114.37642 59.982022 112.73503)
  create_atoms CPU = 0.000 seconds
create_atoms 2 single 78.49736 25.1478 83.54148515759312
Created 1 atoms
  using lattice units in orthogonal box = (68.195723 16.754678 67.512802) to (114.37642 59.982022 112.73503)
  create_atoms CPU = 0.000 seconds
create_atoms 1 single 78.71588 27.7161 82.64582051575931
Created 1 atoms
  using lattice units in orthogonal box = (68.195723 16.754678 67.512802) to (114.37642 59.982022 112.73503)
  create_atoms CPU = 0.000 seconds
create_atoms 1 single 75.67304 25.5586 82.588961260745
Created 1 atoms
  using lattice units in orthogonal box = (68.195723 16.754678 67.512802) to (114.37642 59.982022 112.73503)
  create_atoms CPU = 0.000 seconds
create_atoms 1 single 79.31008 26.6962 80.04879243553007
Created 1 atoms
  using lattice units in orthogonal box = (68.195723 16.754678 67.512802) to (114.37642 59.982022 112.73503)
  create_atoms CPU = 0.000 seconds
create_atoms 1 single 80.21516 24.4049 82.18464045845272
Created 1 atoms
  using lattice units in orthogonal box = (68.195723 16.754678 67.512802) to (114.37642 59.982022 112.73503)
  create_atoms CPU = 0.000 seconds
create_atoms 2 single 82.607 25.1159 81.4637575931232
Created 1 atoms
  using lattice units in orthogonal box = (68.195723 16.754678 67.512802) to (114.37642 59.982022 112.73503)
  create_atoms CPU = 0.000 seconds
create_atoms 1 single 83.37270000000001 24.3133 84.25732320916904
Created 1 atoms
  using lattice units in orthogonal box = (68.195723 16.754678 67.512802) to (114.37642 59.982022 112.73503)
  create_atoms CPU = 0.000 seconds
create_atoms 1 single 81.78641999999999 27.061 82.93547690544412
Created 1 atoms
  using lattice units in orthogonal box = (68.195723 16.754678 67.512802) to (114.37642 59.982022 112.73503)
  create_atoms CPU = 0.000 seconds
create_atoms 1 single 82.21602 27.5635 80.11984022922637
Created 1 atoms
  using lattice units in orthogonal box = (68.195723 16.754678 67.512802) to (114.37642 59.982022 112.73503)
  create_atoms CPU = 0.000 seconds
create_atoms 2 single 81.1316 25.7353 84.83222177650431
Created 1 atoms
  using lattice units in orthogonal box = (68.195723 16.754678 67.512802) to (114.37642 59.982022 112.73503)
  create_atoms CPU = 0.000 seconds
create_atoms 1 single 85.516 24.8861 82.40387965616046
Created 1 atoms
  using lattice units in orthogonal box = (68.195723 16.754678 67.512802) to (114.37642 59.982022 112.73503)
  create_atoms CPU = 0.000 seconds
create_atoms 1 single 84.97008000000001 27.28 83.95221707736391
Created 1 atoms
  using lattice units in orthogonal box = (68.195723 16.754678 67.512802) to (114.37642 59.982022 112.73503)
  create_atoms CPU = 0.000 seconds
create_atoms 4 single 85.10106 26.8071 80.18668401146132
Created 1 atoms
  using lattice units in orthogonal box = (68.195723 16.754678 67.512802) to (114.37642 59.982022 112.73503)
  create_atoms CPU = 0.000 seconds
[...]
  create_atoms CPU = 0.000 seconds
create_atoms 1 single 108.4328 44.3799 106.07036217765044
Created 1 atoms
  using lattice units in orthogonal box = (68.195723 16.754678 67.512802) to (114.37642 59.982022 112.73503)
  create_atoms CPU = 0.000 seconds
create_atoms 1 single 96.648 48.5367 107.12977306590258
Created 1 atoms
  using lattice units in orthogonal box = (68.195723 16.754678 67.512802) to (114.37642 59.982022 112.73503)
  create_atoms CPU = 0.000 seconds
create_atoms 1 single 101.5605 49.2028 105.94319083094557
Created 1 atoms
  using lattice units in orthogonal box = (68.195723 16.754678 67.512802) to (114.37642 59.982022 112.73503)
  create_atoms CPU = 0.000 seconds
group surface id  1 2 3 4 5 6 7 8 9 10 11 12 13 14 15 16 19 20 21 22 23 24 25 26 31 33 34 35 38 40 42 44 46 47 48 49 50 51 52 53 57 58 60 66 67 69 72 74 75 78 79 80 81 82 83 84 85 87 88 91 93 94 95 97 99 100 101 102 103 104 105 106 107 108 109 110 111 112 113 115 116 118 119 121 126 127 129 130 131 132 133 134 136 137 158 162 164 165 167 170 171 172 173 174 175 176 179 210 213 214 215 216 217 248 251 255 256 257 258 259 261 262 266 286 291 292 293 294 295 296 297 299 300 304 305 307 308 310 311 313 314 316 317 318 320 322 323 324 325 326 327 328 329 330 331 332 333 335 336 337 338 340 341 342 343 345 346 347 348 350 352 354 381 382 383 384 387 388 389 390 431 432 433 435 436 437 483 484 485 487 488 489 491 529 530 531 532 533 534 538 539 541 576 577 578 581 583 584 585 586 615 616 618 619 620 621 622 623 625 626 629 630 632 633 634 635 636 637 638 639 640 641 643 644 645 649 651 652 654 657 660 661 663 664 665 666 667 668 671 673 702 707 708 709 710 711 712 713 762 763 766 767 769 771 813 816 817 818 820 864 865 868 871 875 876 877 878 922 923 924 925 926 927 929 930 962 963 964 965 966 967 968 970 971 973 976 977 979 981 983 987 988 989 990 991 992 993 994 995 996 997 1001 1002 1004 1006 1007 1008 1012 1013 1014 1016 1017 1019 1020 1021 1022 1023 1057 1058 1063 1064 1065 1067 1068 1108 1109 1111 1112 1114 1115 1117 1120 1165 1169 1170 1171 1172 1175 1217 1218 1221 1223 1224 1227 1270 1271 1273 1275 1276 1277 1280 1282 1316 1317 1318 1319 1320 1321 1322 1323 1325 1326 1331 1332 1333 1334 1335 1337 1340 1342 1343 1344 1345 1346 1347 1348 1349 1350 1351 1352 1353 1354 1357 1358 1359 1360 1362 1363 1364 1365 1366 1367 1368 1369 1370 1399 1400 1401 1404 1405 1406 1407 1408 1411 1452 1454 1455 1457 1458 1459 1460 1499 1500 1504 1505 1506 1507 1508 1510 1511 1512 1553 1555 1556 1557 1558 1560 1561 1562 1567 1568 1604 1605 1606 1607 1608 1609 1610 1612 1615 1637 1640 1641 1642 1643 1644 1645 1647 1648 1649 1650 1651 1652 1653 1654 1655 1656 1657 1658 1659 1660 1661 1662 1663 1664 1665 1667 1669 1670 1672 1673 1676 1682 1684 1685 1686 1687 1688 1690 1691 1692 1693 1694 1695 1696 1699 1720 1726 1727 1728 1729 1730 1731 1733 1766 1770 1771 1772 1773 1774 1775 1778 1811 1812 1813 1814 1815 1816 1817 1818 1819 1823 1825 1826 1846 1851 1852 1853 1854 1855 1857 1858 1860 1862 1863 1864 1865 1868 1869 1870 1871 1872 1873 1874 1875 1876 1877 1878 1879 1880 1881 1882 1883 1884 1885 1886 1887 1888 1891 1892 1893 1894 1897 1898 1899 1900 1901 1902 1903 1904 1906 1908 1911 1914 1915 1916 1917 1923 1924 1925 1928 1929 1930 1932 1933 1934 1935 1936 1937 1939 1940 1941 1946 1948 1949 1954 1956 1958 1961 1962 1964 1965 1966 1967 1970 1971 1972 1973 1974 1976 1978 1979 1980 1981 1982 1983 1984 1985 
618 atoms in group surface
            fix freeze surface setforce 0 0 0 
            minimize 0 1e-4 100000 100000
Neighbor list info ...
  update: every = 1 steps, delay = 0 steps, check = yes
  max neighbors/atom: 2000, page size: 100000
  master list distance cutoff = 9.1553683
  ghost atom cutoff = 9.1553683
  binsize = 4.5776842, bins = 11 10 10
  1 neighbor lists, perpetual/occasional/extra = 1 0 0
  (1) pair eam/alloy, perpetual
      attributes: half, newton on
      pair build: half/bin/atomonly/newton
      stencil: half/bin/3d
      bin: standard
Per MPI rank memory allocation (min/avg/max) = 4.075 | 4.362 | 4.474 Mbytes
   Step          Temp          E_pair         E_mol          TotEng         Press          Volume    
         0   0             -9987.9857      0             -9987.9857      11077.766      68207.807    
       726   0             -10410.493      0             -10410.493     -14618.664      68207.807    
Loop time of 0.218247 on 192 procs for 726 steps with 1985 atoms

99.8% CPU use with 192 MPI tasks x 1 OpenMP threads

Minimization stats:
  Stopping criterion = linesearch alpha is zero
  Energy initial, next-to-last, final = 
     -9987.98568542439    -10410.49296968    -10410.49296968
  Force two-norm initial, final = 55.687153 0.025209671
  Force max component initial, final = 3.870465 0.0071896959
  Final line search alpha, max atom move = 1.5258789e-05 1.0970605e-07
  Iterations, force evaluations = 726 1362

MPI task timing breakdown:
Section |  min time  |  avg time  |  max time  |%varavg| %total
---------------------------------------------------------------
Pair    | 0.069199   | 0.091192   | 0.1305     |   6.1 | 41.78
Neigh   | 2.4101e-05 | 0.00051313 | 0.0013721  |   0.0 |  0.24
Comm    | 0.016931   | 0.074362   | 0.10395    |   6.9 | 34.07
Output  | 0          | 0          | 0          |   0.0 |  0.00
Modify  | 6.5874e-05 | 9.9483e-05 | 0.00016133 |   0.0 |  0.05
Other   |            | 0.05208    |            |       | 23.86

Nlocal:        10.3385 ave          24 max           0 min
Histogram: 52 15 14 5 10 18 13 42 16 7
Nghost:        359.219 ave         830 max          35 min
Histogram: 15 23 34 30 34 21 7 13 5 10
Neighs:        668.057 ave        1952 max           0 min
Histogram: 66 20 11 17 12 19 10 15 14 8

Total # of neighbors = 128267
Ave neighs/atom = 64.618136
Neighbor list builds = 29
Dangerous builds = 0
            unfix freeze
            compute force all property/atom fx fy fz
            dump fcal all custom 1 dump.force id type x y z fx fy fz
            run 1 
WARNING: No fixes with time integration, atoms won't move (src/verlet.cpp:60)
Per MPI rank memory allocation (min/avg/max) = 2.95 | 3.237 | 3.349 Mbytes
   Step          Temp          E_pair         E_mol          TotEng         Press          Volume    
       726   0             -10410.493      0             -10410.493     -14618.664      68207.807    
       727   0             -10410.493      0             -10410.493     -14618.664      68207.807    
Loop time of 0.00140707 on 192 procs for 1 steps with 1985 atoms

Performance: 61.404 ns/day, 0.391 hours/ns, 710.697 timesteps/s, 1.411 Matom-step/s
99.4% CPU use with 192 MPI tasks x 1 OpenMP threads

MPI task timing breakdown:
Section |  min time  |  avg time  |  max time  |%varavg| %total
---------------------------------------------------------------
Pair    | 6.1206e-05 | 8.6031e-05 | 0.00012756 |   0.0 |  6.11
Neigh   | 0          | 0          | 0          |   0.0 |  0.00
Comm    | 1.3864e-05 | 6.4548e-05 | 9.1418e-05 |   0.0 |  4.59
Output  | 0.00020343 | 0.00067547 | 0.0012842  |   0.0 | 48.01
Modify  | 1.4e-07    | 2.8273e-07 | 6.11e-07   |   0.0 |  0.02
Other   |            | 0.0005807  |            |       | 41.27

Nlocal:        10.3385 ave          24 max           0 min
Histogram: 52 15 14 5 9 19 13 42 16 7
Nghost:         359.51 ave         831 max          35 min
Histogram: 15 23 34 31 33 21 7 13 5 10
Neighs:            668 ave        1955 max           0 min
Histogram: 66 20 11 16 13 20 8 16 13 9

Total # of neighbors = 128256
Ave neighs/atom = 64.612594
Neighbor list builds = 0
Dangerous builds = 0
            
Total wall time: 0:00:00
                                                                                                                                                                                                                                                                                                                                                                                                                                                                                                                                                                                                                                                                                                                                                                                                                                                                                                                                                                                                                                                                                                                                                                                                                                                                                                                                                                                                                                                                                                                                                                                                                                                                                                                                                                                                                                                                                                                                                                                                                                                                                                                                                                                                                                                                                                                                                                                                                                                                                                                                                                                                                                                                                                                                                                                                                                                                                                                                                                                                                                                                                                                                                                                                                                                                                                                                                                                                                                                                                                                                                                                                                                                                                                                                                                                                                                                                                                                                                                                                                                                                                                                                                                                                                                                                                                                                                                                                                                                                                                                                                                                                                                                                                                                                                                                                                                                                                                                                                                                                                                                                                                                                                                                                                                                                                                                                                                                                                                                                                                                                                                                                                                                                                                                                                                                                                                                                                                                                                                                                                                                                                                                                                                                                                                                                                                                                                                                                                                                                                                                                                                                                                                                                                                                                                                                                                                                                                                                                                                                                                                                                                                                                                                                                                                                                                                                                                                                                                                                                                                                                                                                                                                                                                                                                                                                                                                                                                                                                                                                                                                                                                                                                                                                                                                                                                                                                                                                                                                                                                                                                                                                                                                                                                                                                                                                                                                                                                                                                                                                                                                                                                                                                                                                                                                                                                                                                                                                                                                                                                                                                                                                                                                                                                                                                                                                                                                                                                                                                                                                                                                                                                                                                                                                                                                                                                                                                                                                                                                                                                                                                                                                                                                                                                                                                                                                                                                                                                                                                                                                                                                                                                                                                                                                                                                                                                                                                                                                                                                                                                                                                                                                                                                                                                                                                                                                                                                                                                                                                                                                                                                                                                                                                                                                                                                                                                                                                                                                                                                                                                                                                                                                                                                                                                                                                                                           
Total wall time: 0:00:00
