LAMMPS (2 Aug 2023)
WARNING: Using I/O redirection is unreliable with parallel runs. Better to use the -in switch to read input files. (src/lammps.cpp:537)
OMP_NUM_THREADS environment is not set. Defaulting to 1 thread. (src/comm.cpp:98)
  using 1 OpenMP thread(s) per MPI task

            dimension 3
            units metal
            boundary s s s
            atom_style atomic
            timestep 0.001
            region myregion block 18.080762836676218 60.62412378223496 3.5416800000000004 44.5821 79.870215243553 120.18582005730659  units box
            create_box 5 myregion
Created orthogonal box = (18.080763 3.54168 79.870215) to (60.624124 44.5821 120.18582)
  8 by 6 by 4 MPI processor grid
            mass 1 91.224
            mass 2 63.546
            mass 3 58.693
            mass 4 26.982
            mass 5 47.867 
            pair_style eam/alloy
            pair_coeff * * ZrTiCuNiAl_Zhou04.eam.alloy Zr Cu Ni Al Ti
Reading eam/alloy potential file ZrTiCuNiAl_Zhou04.eam.alloy with DATE: 2018-03-30
            create_atoms 1 single 34.71335151862464 13.8431 84.60332424068768
Created 1 atoms
  using lattice units in orthogonal box = (18.076509 3.537576 79.866184) to (60.628378 44.586204 120.18985)
  create_atoms CPU = 0.000 seconds
create_atoms 5 single 37.242598338108884 12.4854 85.73215083094556
Created 1 atoms
  using lattice units in orthogonal box = (18.076509 3.537576 79.866184) to (60.628378 44.586204 120.18985)
  create_atoms CPU = 0.000 seconds
create_atoms 2 single 39.90460429799427 14.5517 85.84634785100288
Created 1 atoms
  using lattice units in orthogonal box = (18.076509 3.537576 79.866184) to (60.628378 44.586204 120.18985)
  create_atoms CPU = 0.000 seconds
create_atoms 1 single 28.932808022922636 18.9051 86.35399598853868
Created 1 atoms
  using lattice units in orthogonal box = (18.076509 3.537576 79.866184) to (60.628378 44.586204 120.18985)
  create_atoms CPU = 0.000 seconds
create_atoms 1 single 31.51132011461318 17.9016 84.7111399426934
Created 1 atoms
  using lattice units in orthogonal box = (18.076509 3.537576 79.866184) to (60.628378 44.586204 120.18985)
  create_atoms CPU = 0.000 seconds
create_atoms 2 single 32.584901146131806 15.2779 85.4167994269341
Created 1 atoms
  using lattice units in orthogonal box = (18.076509 3.537576 79.866184) to (60.628378 44.586204 120.18985)
  create_atoms CPU = 0.000 seconds
create_atoms 4 single 36.2159617765043 17.7586 86.30046911174784
Created 1 atoms
  using lattice units in orthogonal box = (18.076509 3.537576 79.866184) to (60.628378 44.586204 120.18985)
  create_atoms CPU = 0.000 seconds
create_atoms 1 single 37.26606206303725 15.4027 85.00991896848139
Created 1 atoms
  using lattice units in orthogonal box = (18.076509 3.537576 79.866184) to (60.628378 44.586204 120.18985)
  create_atoms CPU = 0.000 seconds
create_atoms 1 single 34.38082779369628 17.0233 84.22863610315187
Created 1 atoms
  using lattice units in orthogonal box = (18.076509 3.537576 79.866184) to (60.628378 44.586204 120.18985)
  create_atoms CPU = 0.000 seconds
create_atoms 4 single 37.12569444126075 17.5711 83.10695277936964
Created 1 atoms
  using lattice units in orthogonal box = (18.076509 3.537576 79.866184) to (60.628378 44.586204 120.18985)
  create_atoms CPU = 0.000 seconds
create_atoms 4 single 38.15516395415473 19.0845 85.20116802292264
Created 1 atoms
  using lattice units in orthogonal box = (18.076509 3.537576 79.866184) to (60.628378 44.586204 120.18985)
  create_atoms CPU = 0.000 seconds
create_atoms 2 single 40.7328558739255 18.9611 85.89492206303726
Created 1 atoms
  using lattice units in orthogonal box = (18.076509 3.537576 79.866184) to (60.628378 44.586204 120.18985)
  create_atoms CPU = 0.000 seconds
create_atoms 1 single 40.01823518624642 16.7809 84.37188240687681
Created 1 atoms
  using lattice units in orthogonal box = (18.076509 3.537576 79.866184) to (60.628378 44.586204 120.18985)
  create_atoms CPU = 0.000 seconds
create_atoms 2 single 39.696122865329514 19.2238 83.19133856733525
Created 1 atoms
  using lattice units in orthogonal box = (18.076509 3.537576 79.866184) to (60.628378 44.586204 120.18985)
  create_atoms CPU = 0.000 seconds
create_atoms 3 single 42.46446011461318 18.0583 84.44521994269341
Created 1 atoms
  using lattice units in orthogonal box = (18.076509 3.537576 79.866184) to (60.628378 44.586204 120.18985)
  create_atoms CPU = 0.000 seconds
create_atoms 1 single 42.632566532951294 15.2836 84.72161673352436
Created 1 atoms
  using lattice units in orthogonal box = (18.076509 3.537576 79.866184) to (60.628378 44.586204 120.18985)
  create_atoms CPU = 0.000 seconds
create_atoms 3 single 46.46193696275071 19.3657 86.14303151862464
Created 1 atoms
  using lattice units in orthogonal box = (18.076509 3.537576 79.866184) to (60.628378 44.586204 120.18985)
  create_atoms CPU = 0.000 seconds
create_atoms 1 single 44.95784641833811 17.1964 85.43727679083095
Created 1 atoms
  using lattice units in orthogonal box = (18.076509 3.537576 79.866184) to (60.628378 44.586204 120.18985)
  create_atoms CPU = 0.000 seconds
create_atoms 1 single 49.098127220630374 18.7488 86.14493638968482
Created 1 atoms
  using lattice units in orthogonal box = (18.076509 3.537576 79.866184) to (60.628378 44.586204 120.18985)
  create_atoms CPU = 0.000 seconds
create_atoms 1 single 31.253953868194845 23.6158 86.12017306590259
Created 1 atoms
  using lattice units in orthogonal box = (18.076509 3.537576 79.866184) to (60.628378 44.586204 120.18985)
  create_atoms CPU = 0.000 seconds
create_atoms 1 single 30.95252166189112 20.8313 85.15468916905445
Created 1 atoms
  using lattice units in orthogonal box = (18.076509 3.537576 79.866184) to (60.628378 44.586204 120.18985)
  create_atoms CPU = 0.000 seconds
create_atoms 3 single 31.772379025787966 22.8698 83.69851048710602
Created 1 atoms
  using lattice units in orthogonal box = (18.076509 3.537576 79.866184) to (60.628378 44.586204 120.18985)
  create_atoms CPU = 0.000 seconds
create_atoms 2 single 29.166194613180515 23.1248 84.39350269340974
Created 1 atoms
  using lattice units in orthogonal box = (18.076509 3.537576 79.866184) to (60.628378 44.586204 120.18985)
  create_atoms CPU = 0.000 seconds
create_atoms 1 single 32.75545782234957 20.0862 83.13562108882522
Created 1 atoms
  using lattice units in orthogonal box = (18.076509 3.537576 79.866184) to (60.628378 44.586204 120.18985)
  create_atoms CPU = 0.000 seconds
create_atoms 1 single 33.9386140974212 19.6351 85.88549295128941
Created 1 atoms
  using lattice units in orthogonal box = (18.076509 3.537576 79.866184) to (60.628378 44.586204 120.18985)
  create_atoms CPU = 0.000 seconds
create_atoms 1 single 34.003181604584526 22.6429 82.22175919770774
Created 1 atoms
  using lattice units in orthogonal box = (18.076509 3.537576 79.866184) to (60.628378 44.586204 120.18985)
  create_atoms CPU = 0.000 seconds
create_atoms 1 single 35.73076722063037 20.0672 83.71841638968482
Created 1 atoms
  using lattice units in orthogonal box = (18.076509 3.537576 79.866184) to (60.628378 44.586204 120.18985)
  create_atoms CPU = 0.000 seconds
create_atoms 2 single 33.93395518624642 22.0544 84.7375224068768
Created 1 atoms
  using lattice units in orthogonal box = (18.076509 3.537576 79.866184) to (60.628378 44.586204 120.18985)
  create_atoms CPU = 0.000 seconds
create_atoms 1 single 36.24339507163324 23.2507 84.05710246418339
Created 1 atoms
  using lattice units in orthogonal box = (18.076509 3.537576 79.866184) to (60.628378 44.586204 120.18985)
  create_atoms CPU = 0.000 seconds
create_atoms 1 single 36.48624550143266 21.4567 86.27627724928368
Created 1 atoms
  using lattice units in orthogonal box = (18.076509 3.537576 79.866184) to (60.628378 44.586204 120.18985)
  create_atoms CPU = 0.000 seconds
create_atoms 2 single 36.695017363896845 21.5946 81.90974131805157
Created 1 atoms
  using lattice units in orthogonal box = (18.076509 3.537576 79.866184) to (60.628378 44.586204 120.18985)
  create_atoms CPU = 0.000 seconds
create_atoms 1 single 38.76759977077364 21.6756 83.93300011461318
Created 1 atoms
  using lattice units in orthogonal box = (18.076509 3.537576 79.866184) to (60.628378 44.586204 120.18985)
  create_atoms CPU = 0.000 seconds
create_atoms 1 single 41.76725077363897 20.7625 84.40207461318052
Created 1 atoms
  using lattice units in orthogonal box = (18.076509 3.537576 79.866184) to (60.628378 44.586204 120.18985)
  create_atoms CPU = 0.000 seconds
create_atoms 2 single 40.55371896848138 23.014 82.56054051575931
Created 1 atoms
  using lattice units in orthogonal box = (18.076509 3.537576 79.866184) to (60.628378 44.586204 120.18985)
  create_atoms CPU = 0.000 seconds
create_atoms 5 single 38.49270120343839 23.6756 85.95644939828081
Created 1 atoms
  using lattice units in orthogonal box = (18.076509 3.537576 79.866184) to (60.628378 44.586204 120.18985)
  create_atoms CPU = 0.000 seconds
create_atoms 1 single 41.33911810888252 23.665 85.10259094555875
Created 1 atoms
  using lattice units in orthogonal box = (18.076509 3.537576 79.866184) to (60.628378 44.586204 120.18985)
  create_atoms CPU = 0.000 seconds
create_atoms 1 single 44.66132045845272 19.9566 84.12643977077364
Created 1 atoms
  using lattice units in orthogonal box = (18.076509 3.537576 79.866184) to (60.628378 44.586204 120.18985)
  create_atoms CPU = 0.000 seconds
create_atoms 2 single 43.243570830945565 22.7733 83.47916458452723
Created 1 atoms
  using lattice units in orthogonal box = (18.076509 3.537576 79.866184) to (60.628378 44.586204 120.18985)
  create_atoms CPU = 0.000 seconds
create_atoms 4 single 44.78018332378224 21.6645 86.27865833810888
Created 1 atoms
  using lattice units in orthogonal box = (18.076509 3.537576 79.866184) to (60.628378 44.586204 120.18985)
  create_atoms CPU = 0.000 seconds
create_atoms 1 single 46.0318817765043 22.8309 84.17310911174785
Created 1 atoms
  using lattice units in orthogonal box = (18.076509 3.537576 79.866184) to (60.628378 44.586204 120.18985)
  create_atoms CPU = 0.000 seconds
create_atoms 2 single 47.45631077363897 21.6661 86.32999461318052
Created 1 atoms
  using lattice units in orthogonal box = (18.076509 3.537576 79.866184) to (60.628378 44.586204 120.18985)
  create_atoms CPU = 0.000 seconds
create_atoms 1 single 47.69554515759312 20.4197 84.20177742120345
Created 1 atoms
  using lattice units in orthogonal box = (18.076509 3.537576 79.866184) to (60.628378 44.586204 120.18985)
  create_atoms CPU = 0.000 seconds
create_atoms 2 single 48.845385329512894 23.454 85.05620733524356
Created 1 atoms
  using lattice units in orthogonal box = (18.076509 3.537576 79.866184) to (60.628378 44.586204 120.18985)
  create_atoms CPU = 0.000 seconds
create_atoms 2 single 50.11214005730659 21.3539 86.03292997134672
Created 1 atoms
  using lattice units in orthogonal box = (18.076509 3.537576 79.866184) to (60.628378 44.586204 120.18985)
  create_atoms CPU = 0.000 seconds
create_atoms 3 single 26.66094206303725 25.752 85.80767896848138
Created 1 atoms
  using lattice units in orthogonal box = (18.076509 3.537576 79.866184) to (60.628378 44.586204 120.18985)
  create_atoms CPU = 0.000 seconds
create_atoms 1 single 32.32870338108883 27.0751 86.1867483094556
Created 1 atoms
  using lattice units in orthogonal box = (18.076509 3.537576 79.866184) to (60.628378 44.586204 120.18985)
  create_atoms CPU = 0.000 seconds
create_atoms 3 single 32.424432550143266 24.8304 82.48358372492838
Created 1 atoms
  using lattice units in orthogonal box = (18.076509 3.537576 79.866184) to (60.628378 44.586204 120.18985)
  create_atoms CPU = 0.000 seconds
create_atoms 5 single 30.69229816618911 25.5416 84.11320091690546
Created 1 atoms
  using lattice units in orthogonal box = (18.076509 3.537576 79.866184) to (60.628378 44.586204 120.18985)
  create_atoms CPU = 0.000 seconds
create_atoms 1 single 29.17324154727794 26.9971 85.93682922636103
Created 1 atoms
  using lattice units in orthogonal box = (18.076509 3.537576 79.866184) to (60.628378 44.586204 120.18985)
  create_atoms CPU = 0.000 seconds
create_atoms 2 single 30.673067106017193 28.5248 84.3011164469914
Created 1 atoms
  using lattice units in orthogonal box = (18.076509 3.537576 79.866184) to (60.628378 44.586204 120.18985)
  create_atoms CPU = 0.000 seconds
create_atoms 2 single 32.90140687679083 27.1477 83.53859656160459
Created 1 atoms
  using lattice units in orthogonal box = (18.076509 3.537576 79.866184) to (60.628378 44.586204 120.18985)
  create_atoms CPU = 0.000 seconds
create_atoms 1 single 33.73556985673353 24.7848 84.94191507163323
Created 1 atoms
  using lattice units in orthogonal box = (18.076509 3.537576 79.866184) to (60.628378 44.586204 120.18985)
  create_atoms CPU = 0.000 seconds
create_atoms 2 single 34.73873931232092 27.6424 85.33308034383954
Created 1 atoms
  using lattice units in orthogonal box = (18.076509 3.537576 79.866184) to (60.628378 44.586204 120.18985)
  create_atoms CPU = 0.000 seconds
create_atoms 1 single 35.001842979942694 25.5856 82.47567851002866
Created 1 atoms
  using lattice units in orthogonal box = (18.076509 3.537576 79.866184) to (60.628378 44.586204 120.18985)
  create_atoms CPU = 0.000 seconds
create_atoms 2 single 37.244469512893986 24.0846 81.870215243553
Created 1 atoms
  using lattice units in orthogonal box = (18.076509 3.537576 79.866184) to (60.628378 44.586204 120.18985)
  create_atoms CPU = 0.000 seconds
create_atoms 1 single 36.68369787965616 26.0069 84.90515106017193
Created 1 atoms
  using lattice units in orthogonal box = (18.076509 3.537576 79.866184) to (60.628378 44.586204 120.18985)
  create_atoms CPU = 0.000 seconds
create_atoms 1 single 35.431207449856736 28.4652 83.11809627507164
Created 1 atoms
  using lattice units in orthogonal box = (18.076509 3.537576 79.866184) to (60.628378 44.586204 120.18985)
  create_atoms CPU = 0.000 seconds
create_atoms 3 single 38.88588693409742 24.496 83.71260653295128
Created 1 atoms
  using lattice units in orthogonal box = (18.076509 3.537576 79.866184) to (60.628378 44.586204 120.18985)
  create_atoms CPU = 0.000 seconds
create_atoms 1 single 42.13041272206304 26.8491 85.89749363896848
Created 1 atoms
  using lattice units in orthogonal box = (18.076509 3.537576 79.866184) to (60.628378 44.586204 120.18985)
  create_atoms CPU = 0.000 seconds
create_atoms 4 single 38.050578338108885 26.7596 82.54111083094557
Created 1 atoms
  using lattice units in orthogonal box = (18.076509 3.537576 79.866184) to (60.628378 44.586204 120.18985)
  create_atoms CPU = 0.000 seconds
create_atoms 4 single 39.44545340974212 26.3017 85.45937329512894
Created 1 atoms
  using lattice units in orthogonal box = (18.076509 3.537576 79.866184) to (60.628378 44.586204 120.18985)
  create_atoms CPU = 0.000 seconds
create_atoms 1 single 41.261922063037254 25.7431 83.11523896848138
Created 1 atoms
  using lattice units in orthogonal box = (18.076509 3.537576 79.866184) to (60.628378 44.586204 120.18985)
  create_atoms CPU = 0.000 seconds
create_atoms 2 single 37.86764739255014 28.5249 84.47312630372492
Created 1 atoms
  using lattice units in orthogonal box = (18.076509 3.537576 79.866184) to (60.628378 44.586204 120.18985)
  create_atoms CPU = 0.000 seconds
create_atoms 1 single 40.41763810888252 28.5116 83.64003094555873
Created 1 atoms
  using lattice units in orthogonal box = (18.076509 3.537576 79.866184) to (60.628378 44.586204 120.18985)
  create_atoms CPU = 0.000 seconds
create_atoms 1 single 46.920708997134675 24.5789 86.38704550143267
Created 1 atoms
  using lattice units in orthogonal box = (18.076509 3.537576 79.866184) to (60.628378 44.586204 120.18985)
  create_atoms CPU = 0.000 seconds
create_atoms 1 single 44.09550888252149 25.187 84.47674555873925
Created 1 atoms
  using lattice units in orthogonal box = (18.076509 3.537576 79.866184) to (60.628378 44.586204 120.18985)
  create_atoms CPU = 0.000 seconds
create_atoms 1 single 43.495791174785104 28.2337 83.75870441260744
Created 1 atoms
  using lattice units in orthogonal box = (18.076509 3.537576 79.866184) to (60.628378 44.586204 120.18985)
  create_atoms CPU = 0.000 seconds
create_atoms 1 single 46.399401604584526 27.1259 84.58179919770775
Created 1 atoms
  using lattice units in orthogonal box = (18.076509 3.537576 79.866184) to (60.628378 44.586204 120.18985)
  create_atoms CPU = 0.000 seconds
create_atoms 3 single 48.847973524355304 26.2551 85.74091323782235
Created 1 atoms
  using lattice units in orthogonal box = (18.076509 3.537576 79.866184) to (60.628378 44.586204 120.18985)
  create_atoms CPU = 0.000 seconds
create_atoms 3 single 48.799237249283664 28.6836 85.18488137535816
Created 1 atoms
  using lattice units in orthogonal box = (18.076509 3.537576 79.866184) to (60.628378 44.586204 120.18985)
  create_atoms CPU = 0.000 seconds
create_atoms 1 single 28.533705616045847 29.9086 85.46089719197708
Created 1 atoms
  using lattice units in orthogonal box = (18.076509 3.537576 79.866184) to (60.628378 44.586204 120.18985)
  create_atoms CPU = 0.000 seconds
create_atoms 2 single 31.03368659025788 31.9725 84.96210670487106
Created 1 atoms
  using lattice units in orthogonal box = (18.076509 3.537576 79.866184) to (60.628378 44.586204 120.18985)
  create_atoms CPU = 0.000 seconds
create_atoms 4 single 34.39239186246419 32.6372 84.08510406876792
Created 1 atoms
  using lattice units in orthogonal box = (18.076509 3.537576 79.866184) to (60.628378 44.586204 120.18985)
  create_atoms CPU = 0.000 seconds
create_atoms 1 single 33.19078636103152 29.8003 84.46550681948425
Created 1 atoms
  using lattice units in orthogonal box = (18.076509 3.537576 79.866184) to (60.628378 44.586204 120.18985)
  create_atoms CPU = 0.000 seconds
create_atoms 1 single 36.20293541547278 30.6478 85.03468229226361
Created 1 atoms
  using lattice units in orthogonal box = (18.076509 3.537576 79.866184) to (60.628378 44.586204 120.18985)
  create_atoms CPU = 0.000 seconds
create_atoms 4 single 33.53031363896848 31.9983 86.38809318051575
Created 1 atoms
  using lattice units in orthogonal box = (18.076509 3.537576 79.866184) to (60.628378 44.586204 120.18985)
  create_atoms CPU = 0.000 seconds
create_atoms 5 single 39.85704395415473 28.9077 86.33132802292265
Created 1 atoms
  using lattice units in orthogonal box = (18.076509 3.537576 79.866184) to (60.628378 44.586204 120.18985)
  create_atoms CPU = 0.000 seconds
create_atoms 3 single 41.96693025787965 29.8621 85.32898487106017
Created 1 atoms
  using lattice units in orthogonal box = (18.076509 3.537576 79.866184) to (60.628378 44.586204 120.18985)
  create_atoms CPU = 0.000 seconds
create_atoms 1 single 39.134689283667626 31.0621 84.56465535816619
Created 1 atoms
  using lattice units in orthogonal box = (18.076509 3.537576 79.866184) to (60.628378 44.586204 120.18985)
  create_atoms CPU = 0.000 seconds
create_atoms 3 single 39.099650945558736 33.0737 86.35342452722062
Created 1 atoms
  using lattice units in orthogonal box = (18.076509 3.537576 79.866184) to (60.628378 44.586204 120.18985)
  create_atoms CPU = 0.000 seconds
create_atoms 3 single 41.44948401146132 32.4172 84.94305799426935
Created 1 atoms
  using lattice units in orthogonal box = (18.076509 3.537576 79.866184) to (60.628378 44.586204 120.18985)
  create_atoms CPU = 0.000 seconds
create_atoms 2 single 43.81988893982808 31.2152 84.48455553008596
Created 1 atoms
  using lattice units in orthogonal box = (18.076509 3.537576 79.866184) to (60.628378 44.586204 120.18985)
  create_atoms CPU = 0.000 seconds
create_atoms 1 single 46.39533524355301 30.1532 84.9115323782235
Created 1 atoms
  using lattice units in orthogonal box = (18.076509 3.537576 79.866184) to (60.628378 44.586204 120.18985)
  create_atoms CPU = 0.000 seconds
create_atoms 1 single 45.75435759312321 32.9482 86.12922120343839
Created 1 atoms
  using lattice units in orthogonal box = (18.076509 3.537576 79.866184) to (60.628378 44.586204 120.18985)
  create_atoms CPU = 0.000 seconds
create_atoms 2 single 33.73081106017192 34.6115 85.70424446991404
Created 1 atoms
  using lattice units in orthogonal box = (18.076509 3.537576 79.866184) to (60.628378 44.586204 120.18985)
  create_atoms CPU = 0.000 seconds
create_atoms 1 single 36.37123845272207 33.4431 86.37933077363897
Created 1 atoms
  using lattice units in orthogonal box = (18.076509 3.537576 79.866184) to (60.628378 44.586204 120.18985)
  create_atoms CPU = 0.000 seconds
create_atoms 2 single 37.78463209169055 33.4772 84.31578395415472
Created 1 atoms
  using lattice units in orthogonal box = (18.076509 3.537576 79.866184) to (60.628378 44.586204 120.18985)
  create_atoms CPU = 0.000 seconds
create_atoms 1 single 40.63006395415473 34.9368 85.53356802292264
Created 1 atoms
  using lattice units in orthogonal box = (18.076509 3.537576 79.866184) to (60.628378 44.586204 120.18985)
  create_atoms CPU = 0.000 seconds
create_atoms 3 single 43.167065214899715 34.0537 85.77186739255015
Created 1 atoms
  using lattice units in orthogonal box = (18.076509 3.537576 79.866184) to (60.628378 44.586204 120.18985)
  create_atoms CPU = 0.000 seconds
create_atoms 4 single 44.38213747851003 36.3113 86.34628126074499
Created 1 atoms
  using lattice units in orthogonal box = (18.076509 3.537576 79.866184) to (60.628378 44.586204 120.18985)
  create_atoms CPU = 0.000 seconds
create_atoms 2 single 32.51448756446992 9.39102 90.64595621776505
Created 1 atoms
  using lattice units in orthogonal box = (18.076509 3.537576 79.866184) to (60.628378 44.586204 120.18985)
  create_atoms CPU = 0.000 seconds
create_atoms 1 single 35.364415816618916 10.1332 89.77619209169056
Created 1 atoms
  using lattice units in orthogonal box = (18.076509 3.537576 79.866184) to (60.628378 44.586204 120.18985)
  create_atoms CPU = 0.000 seconds
create_atoms 4 single 37.73938240687679 8.62247 90.10925879656162
Created 1 atoms
  using lattice units in orthogonal box = (18.076509 3.537576 79.866184) to (60.628378 44.586204 120.18985)
  create_atoms CPU = 0.000 seconds
create_atoms 4 single 40.199627106017196 9.81852 88.72203644699141
Created 1 atoms
  using lattice units in orthogonal box = (18.076509 3.537576 79.866184) to (60.628378 44.586204 120.18985)
  create_atoms CPU = 0.000 seconds
create_atoms 4 single 42.008338338108885 10.0321 90.78463083094556
Created 1 atoms
  using lattice units in orthogonal box = (18.076509 3.537576 79.866184) to (60.628378 44.586204 120.18985)
  create_atoms CPU = 0.000 seconds
create_atoms 1 single 27.901389283667623 13.5687 89.5506553581662
Created 1 atoms
  using lattice units in orthogonal box = (18.076509 3.537576 79.866184) to (60.628378 44.586204 120.18985)
  create_atoms CPU = 0.000 seconds
create_atoms 5 single 30.019330429799428 11.0989 89.93953478510029
Created 1 atoms
  using lattice units in orthogonal box = (18.076509 3.537576 79.866184) to (60.628378 44.586204 120.18985)
  create_atoms CPU = 0.000 seconds
create_atoms 3 single 31.301801031518625 13.4151 90.1544994842407
Created 1 atoms
  using lattice units in orthogonal box = (18.076509 3.537576 79.866184) to (60.628378 44.586204 120.18985)
  create_atoms CPU = 0.000 seconds
create_atoms 1 single 30.17021323782235 13.2725 87.76274338108882
Created 1 atoms
  using lattice units in orthogonal box = (18.076509 3.537576 79.866184) to (60.628378 44.586204 120.18985)
  create_atoms CPU = 0.000 seconds
create_atoms 5 single 32.76238962750716 12.848 86.47295518624642
Created 1 atoms
  using lattice units in orthogonal box = (18.076509 3.537576 79.866184) to (60.628378 44.586204 120.18985)
  create_atoms CPU = 0.000 seconds
create_atoms 1 single 32.89305186246418 11.6978 89.17082406876791
Created 1 atoms
  using lattice units in orthogonal box = (18.076509 3.537576 79.866184) to (60.628378 44.586204 120.18985)
  create_atoms CPU = 0.000 seconds
create_atoms 1 single 32.778159828080234 14.7411 88.5611700859599
Created 1 atoms
  using lattice units in orthogonal box = (18.076509 3.537576 79.866184) to (60.628378 44.586204 120.18985)
  create_atoms CPU = 0.000 seconds
create_atoms 2 single 35.270544871060174 12.1342 87.32052756446991
Created 1 atoms
  using lattice units in orthogonal box = (18.076509 3.537576 79.866184) to (60.628378 44.586204 120.18985)
  create_atoms CPU = 0.000 seconds
create_atoms 4 single 35.613787277936964 13.4217 89.44350636103152
Created 1 atoms
  using lattice units in orthogonal box = (18.076509 3.537576 79.866184) to (60.628378 44.586204 120.18985)
  create_atoms CPU = 0.000 seconds
create_atoms 1 single 37.73165679083095 11.3565 88.71232160458453
Created 1 atoms
  using lattice units in orthogonal box = (18.076509 3.537576 79.866184) to (60.628378 44.586204 120.18985)
  create_atoms CPU = 0.000 seconds
create_atoms 1 single 40.040298624641835 12.1844 87.10080068767908
Created 1 atoms
  using lattice units in orthogonal box = (18.076509 3.537576 79.866184) to (60.628378 44.586204 120.18985)
  create_atoms CPU = 0.000 seconds
create_atoms 1 single 38.01557994269341 14.1714 87.84551002865331
Created 1 atoms
  using lattice units in orthogonal box = (18.076509 3.537576 79.866184) to (60.628378 44.586204 120.18985)
  create_atoms CPU = 0.000 seconds
create_atoms 4 single 38.36758097421203 14.4649 90.57880951289398
Created 1 atoms
  using lattice units in orthogonal box = (18.076509 3.537576 79.866184) to (60.628378 44.586204 120.18985)
  create_atoms CPU = 0.000 seconds
create_atoms 4 single 40.40674974212035 12.4644 89.97877512893983
Created 1 atoms
  using lattice units in orthogonal box = (18.076509 3.537576 79.866184) to (60.628378 44.586204 120.18985)
  create_atoms CPU = 0.000 seconds
create_atoms 1 single 42.74168550143266 11.9114 88.50335724928367
Created 1 atoms
  using lattice units in orthogonal box = (18.076509 3.537576 79.866184) to (60.628378 44.586204 120.18985)
  create_atoms CPU = 0.000 seconds
create_atoms 3 single 42.22734905444126 13.8827 86.82697547277938
Created 1 atoms
  using lattice units in orthogonal box = (18.076509 3.537576 79.866184) to (60.628378 44.586204 120.18985)
  create_atoms CPU = 0.000 seconds
create_atoms 2 single 44.55360607449857 10.3505 90.27669696275072
Created 1 atoms
  using lattice units in orthogonal box = (18.076509 3.537576 79.866184) to (60.628378 44.586204 120.18985)
  create_atoms CPU = 0.000 seconds
create_atoms 1 single 44.779381432664756 14.7263 87.08460928366763
Created 1 atoms
  using lattice units in orthogonal box = (18.076509 3.537576 79.866184) to (60.628378 44.586204 120.18985)
  create_atoms CPU = 0.000 seconds
create_atoms 1 single 45.62978601719198 12.6712 89.37140699140402
Created 1 atoms
  using lattice units in orthogonal box = (18.076509 3.537576 79.866184) to (60.628378 44.586204 120.18985)
  create_atoms CPU = 0.000 seconds
create_atoms 3 single 47.375279083094554 14.2045 88.06076045845273
Created 1 atoms
  using lattice units in orthogonal box = (18.076509 3.537576 79.866184) to (60.628378 44.586204 120.18985)
  create_atoms CPU = 0.000 seconds
create_atoms 2 single 43.43498555873926 14.5652 89.20920722063038
Created 1 atoms
  using lattice units in orthogonal box = (18.076509 3.537576 79.866184) to (60.628378 44.586204 120.18985)
  create_atoms CPU = 0.000 seconds
create_atoms 1 single 48.485824126074505 13.2577 90.57623793696276
Created 1 atoms
  using lattice units in orthogonal box = (18.076509 3.537576 79.866184) to (60.628378 44.586204 120.18985)
  create_atoms CPU = 0.000 seconds
create_atoms 4 single 51.18540790830946 14.037 90.26069604584528
Created 1 atoms
  using lattice units in orthogonal box = (18.076509 3.537576 79.866184) to (60.628378 44.586204 120.18985)
  create_atoms CPU = 0.000 seconds
create_atoms 1 single 26.060655415472777 16.0435 90.05392229226361
Created 1 atoms
  using lattice units in orthogonal box = (18.076509 3.537576 79.866184) to (60.628378 44.586204 120.18985)
  create_atoms CPU = 0.000 seconds
create_atoms 2 single 28.144534727793697 17.887 90.02668263610316
Created 1 atoms
  using lattice units in orthogonal box = (18.076509 3.537576 79.866184) to (60.628378 44.586204 120.18985)
  create_atoms CPU = 0.000 seconds
create_atoms 1 single 27.82385123209169 16.109 87.72207438395417
Created 1 atoms
  using lattice units in orthogonal box = (18.076509 3.537576 79.866184) to (60.628378 44.586204 120.18985)
  create_atoms CPU = 0.000 seconds
create_atoms 1 single 26.12989501432665 18.4118 88.00485249283668
Created 1 atoms
  using lattice units in orthogonal box = (18.076509 3.537576 79.866184) to (60.628378 44.586204 120.18985)
  create_atoms CPU = 0.000 seconds
create_atoms 1 single 24.240740458452724 18.4862 90.14287977077365
Created 1 atoms
  using lattice units in orthogonal box = (18.076509 3.537576 79.866184) to (60.628378 44.586204 120.18985)
  create_atoms CPU = 0.000 seconds
create_atoms 1 single 30.548631633237825 16.2066 86.8127841833811
Created 1 atoms
  using lattice units in orthogonal box = (18.076509 3.537576 79.866184) to (60.628378 44.586204 120.18985)
  create_atoms CPU = 0.000 seconds
create_atoms 1 single 30.12265547277937 15.7175 89.59637226361032
Created 1 atoms
  using lattice units in orthogonal box = (18.076509 3.537576 79.866184) to (60.628378 44.586204 120.18985)
  create_atoms CPU = 0.000 seconds
create_atoms 2 single 30.01243994269341 18.264 88.7762300286533
Created 1 atoms
  using lattice units in orthogonal box = (18.076509 3.537576 79.866184) to (60.628378 44.586204 120.18985)
  create_atoms CPU = 0.000 seconds
create_atoms 4 single 32.629799083094554 17.5246 89.58980045845273
Created 1 atoms
  using lattice units in orthogonal box = (18.076509 3.537576 79.866184) to (60.628378 44.586204 120.18985)
  create_atoms CPU = 0.000 seconds
create_atoms 4 single 31.799234154727795 19.0795 87.45558292263611
Created 1 atoms
  using lattice units in orthogonal box = (18.076509 3.537576 79.866184) to (60.628378 44.586204 120.18985)
  create_atoms CPU = 0.000 seconds
create_atoms 1 single 35.220932893982805 14.9806 87.0510835530086
Created 1 atoms
  using lattice units in orthogonal box = (18.076509 3.537576 79.866184) to (60.628378 44.586204 120.18985)
  create_atoms CPU = 0.000 seconds
create_atoms 4 single 33.435356561604586 17.1123 87.0523217191977
Created 1 atoms
  using lattice units in orthogonal box = (18.076509 3.537576 79.866184) to (60.628378 44.586204 120.18985)
  create_atoms CPU = 0.000 seconds
create_atoms 4 single 34.98762257879656 16.091 89.96648871060172
Created 1 atoms
  using lattice units in orthogonal box = (18.076509 3.537576 79.866184) to (60.628378 44.586204 120.18985)
  create_atoms CPU = 0.000 seconds
create_atoms 4 single 35.17950183381089 18.6258 88.56859908309455
Created 1 atoms
  using lattice units in orthogonal box = (18.076509 3.537576 79.866184) to (60.628378 44.586204 120.18985)
  create_atoms CPU = 0.000 seconds
create_atoms 4 single 37.16257799426934 16.7374 88.77661100286534
Created 1 atoms
  using lattice units in orthogonal box = (18.076509 3.537576 79.866184) to (60.628378 44.586204 120.18985)
  create_atoms CPU = 0.000 seconds
create_atoms 4 single 37.77425753581662 19.3626 87.91637123209169
Created 1 atoms
  using lattice units in orthogonal box = (18.076509 3.537576 79.866184) to (60.628378 44.586204 120.18985)
  create_atoms CPU = 0.000 seconds
create_atoms 5 single 40.79044475644699 14.8056 88.56802762177651
Created 1 atoms
  using lattice units in orthogonal box = (18.076509 3.537576 79.866184) to (60.628378 44.586204 120.18985)
  create_atoms CPU = 0.000 seconds
create_atoms 1 single 39.14726487106017 16.8768 87.02136756446991
Created 1 atoms
  using lattice units in orthogonal box = (18.076509 3.537576 79.866184) to (60.628378 44.586204 120.18985)
  create_atoms CPU = 0.000 seconds
create_atoms 1 single 42.61899329512894 16.9818 89.93115335243554
Created 1 atoms
  using lattice units in orthogonal box = (18.076509 3.537576 79.866184) to (60.628378 44.586204 120.18985)
  create_atoms CPU = 0.000 seconds
create_atoms 1 single 42.1274982234957 16.6984 86.97965088825217
Created 1 atoms
  using lattice units in orthogonal box = (18.076509 3.537576 79.866184) to (60.628378 44.586204 120.18985)
  create_atoms CPU = 0.000 seconds
create_atoms 4 single 39.68893730659026 17.1061 90.21193134670487
Created 1 atoms
  using lattice units in orthogonal box = (18.076509 3.537576 79.866184) to (60.628378 44.586204 120.18985)
  create_atoms CPU = 0.000 seconds
create_atoms 1 single 40.67619306590258 19.0846 88.43735346704871
Created 1 atoms
  using lattice units in orthogonal box = (18.076509 3.537576 79.866184) to (60.628378 44.586204 120.18985)
  create_atoms CPU = 0.000 seconds
create_atoms 1 single 46.02455088825215 15.5922 89.80257455587393
Created 1 atoms
  using lattice units in orthogonal box = (18.076509 3.537576 79.866184) to (60.628378 44.586204 120.18985)
  create_atoms CPU = 0.000 seconds
create_atoms 2 single 44.545288194842406 17.2711 88.1059059025788
Created 1 atoms
  using lattice units in orthogonal box = (18.076509 3.537576 79.866184) to (60.628378 44.586204 120.18985)
  create_atoms CPU = 0.000 seconds
create_atoms 3 single 45.18229128939828 17.9644 90.32260435530085
Created 1 atoms
  using lattice units in orthogonal box = (18.076509 3.537576 79.866184) to (60.628378 44.586204 120.18985)
  create_atoms CPU = 0.000 seconds
create_atoms 1 single 47.204320687679086 17.1011 87.61463965616046
Created 1 atoms
  using lattice units in orthogonal box = (18.076509 3.537576 79.866184) to (60.628378 44.586204 120.18985)
  create_atoms CPU = 0.000 seconds
create_atoms 5 single 43.442502349570205 19.2541 86.6112488252149
Created 1 atoms
  using lattice units in orthogonal box = (18.076509 3.537576 79.866184) to (60.628378 44.586204 120.18985)
  create_atoms CPU = 0.000 seconds
create_atoms 3 single 48.74264022922636 15.6945 89.48007988538683
Created 1 atoms
  using lattice units in orthogonal box = (18.076509 3.537576 79.866184) to (60.628378 44.586204 120.18985)
  create_atoms CPU = 0.000 seconds
create_atoms 1 single 47.842331747851006 18.1735 90.3850841260745
Created 1 atoms
  using lattice units in orthogonal box = (18.076509 3.537576 79.866184) to (60.628378 44.586204 120.18985)
  create_atoms CPU = 0.000 seconds
create_atoms 2 single 49.88113856733525 17.7317 88.62203071633238
Created 1 atoms
  using lattice units in orthogonal box = (18.076509 3.537576 79.866184) to (60.628378 44.586204 120.18985)
  create_atoms CPU = 0.000 seconds
create_atoms 4 single 52.47397260744985 17.7234 89.40531369627507
Created 1 atoms
  using lattice units in orthogonal box = (18.076509 3.537576 79.866184) to (60.628378 44.586204 120.18985)
  create_atoms CPU = 0.000 seconds
create_atoms 1 single 28.294914727793696 20.3879 88.66384263610315
Created 1 atoms
  using lattice units in orthogonal box = (18.076509 3.537576 79.866184) to (60.628378 44.586204 120.18985)
  create_atoms CPU = 0.000 seconds
create_atoms 3 single 26.691946934097423 20.6391 86.4715265329513
Created 1 atoms
  using lattice units in orthogonal box = (18.076509 3.537576 79.866184) to (60.628378 44.586204 120.18985)
  create_atoms CPU = 0.000 seconds
create_atoms 3 single 26.549371060171918 19.6891 90.29136446991404
Created 1 atoms
  using lattice units in orthogonal box = (18.076509 3.537576 79.866184) to (60.628378 44.586204 120.18985)
  create_atoms CPU = 0.000 seconds
create_atoms 3 single 24.640954212034384 21.0815 90.6876728939828
Created 1 atoms
  using lattice units in orthogonal box = (18.076509 3.537576 79.866184) to (60.628378 44.586204 120.18985)
  create_atoms CPU = 0.000 seconds
create_atoms 1 single 23.99013358166189 23.1856 89.20568320916907
Created 1 atoms
  using lattice units in orthogonal box = (18.076509 3.537576 79.866184) to (60.628378 44.586204 120.18985)
  create_atoms CPU = 0.000 seconds
create_atoms 1 single 27.00163988538682 22.3344 90.3971800573066
Created 1 atoms
  using lattice units in orthogonal box = (18.076509 3.537576 79.866184) to (60.628378 44.586204 120.18985)
  create_atoms CPU = 0.000 seconds
create_atoms 1 single 26.65809747851003 23.238 87.60940126074499
Created 1 atoms
  using lattice units in orthogonal box = (18.076509 3.537576 79.866184) to (60.628378 44.586204 120.18985)
  create_atoms CPU = 0.000 seconds
create_atoms 2 single 25.302465214899712 20.9535 88.43106739255015
Created 1 atoms
  using lattice units in orthogonal box = (18.076509 3.537576 79.866184) to (60.628378 44.586204 120.18985)
  create_atoms CPU = 0.000 seconds
create_atoms 3 single 28.898031174785103 21.81 86.48438441260745
Created 1 atoms
  using lattice units in orthogonal box = (18.076509 3.537576 79.866184) to (60.628378 44.586204 120.18985)
  create_atoms CPU = 0.000 seconds
create_atoms 1 single 30.978297994269344 20.5964 90.13945100286534
Created 1 atoms
  using lattice units in orthogonal box = (18.076509 3.537576 79.866184) to (60.628378 44.586204 120.18985)
  create_atoms CPU = 0.000 seconds
create_atoms 5 single 29.406219025787966 22.9564 88.75099048710602
Created 1 atoms
  using lattice units in orthogonal box = (18.076509 3.537576 79.866184) to (60.628378 44.586204 120.18985)
  create_atoms CPU = 0.000 seconds
create_atoms 2 single 31.179710143266476 21.4629 87.70664492836676
Created 1 atoms
  using lattice units in orthogonal box = (18.076509 3.537576 79.866184) to (60.628378 44.586204 120.18985)
  create_atoms CPU = 0.000 seconds
create_atoms 1 single 32.45831037249284 23.2613 89.53284481375358
Created 1 atoms
  using lattice units in orthogonal box = (18.076509 3.537576 79.866184) to (60.628378 44.586204 120.18985)
  create_atoms CPU = 0.000 seconds
create_atoms 4 single 33.57860934097421 20.4653 89.2925453295129
Created 1 atoms
  using lattice units in orthogonal box = (18.076509 3.537576 79.866184) to (60.628378 44.586204 120.18985)
  create_atoms CPU = 0.000 seconds
create_atoms 1 single 33.82171037249284 22.3129 87.20604481375358
Created 1 atoms
  using lattice units in orthogonal box = (18.076509 3.537576 79.866184) to (60.628378 44.586204 120.18985)
  create_atoms CPU = 0.000 seconds
create_atoms 4 single 36.16603581661891 21.3202 88.97843209169055
Created 1 atoms
  using lattice units in orthogonal box = (18.076509 3.537576 79.866184) to (60.628378 44.586204 120.18985)
  create_atoms CPU = 0.000 seconds
create_atoms 4 single 38.34505432664757 20.2202 90.27117283667623
Created 1 atoms
  using lattice units in orthogonal box = (18.076509 3.537576 79.866184) to (60.628378 44.586204 120.18985)
  create_atoms CPU = 0.000 seconds
create_atoms 5 single 38.02458011461318 23.3069 88.46725994269342
Created 1 atoms
  using lattice units in orthogonal box = (18.076509 3.537576 79.866184) to (60.628378 44.586204 120.18985)
  create_atoms CPU = 0.000 seconds
create_atoms 4 single 39.38968555873926 21.1839 86.71620722063038
Created 1 atoms
  using lattice units in orthogonal box = (18.076509 3.537576 79.866184) to (60.628378 44.586204 120.18985)
  create_atoms CPU = 0.000 seconds
create_atoms 1 single 40.47931541547278 22.029 89.48884229226361
Created 1 atoms
  using lattice units in orthogonal box = (18.076509 3.537576 79.866184) to (60.628378 44.586204 120.18985)
  create_atoms CPU = 0.000 seconds
create_atoms 1 single 42.11832160458453 21.6607 87.27423919770774
Created 1 atoms
  using lattice units in orthogonal box = (18.076509 3.537576 79.866184) to (60.628378 44.586204 120.18985)
  create_atoms CPU = 0.000 seconds
create_atoms 1 single 42.75494521489971 24.0484 89.72742739255014
Created 1 atoms
  using lattice units in orthogonal box = (18.076509 3.537576 79.866184) to (60.628378 44.586204 120.18985)
  create_atoms CPU = 0.000 seconds
create_atoms 5 single 45.74892452722063 19.6583 88.3705877363897
Created 1 atoms
  using lattice units in orthogonal box = (18.076509 3.537576 79.866184) to (60.628378 44.586204 120.18985)
  create_atoms CPU = 0.000 seconds
create_atoms 5 single 43.29729180515759 19.6599 89.3624540974212
Created 1 atoms
  using lattice units in orthogonal box = (18.076509 3.537576 79.866184) to (60.628378 44.586204 120.18985)
  create_atoms CPU = 0.000 seconds
create_atoms 3 single 44.18129696275072 21.9653 89.06815151862465
Created 1 atoms
  using lattice units in orthogonal box = (18.076509 3.537576 79.866184) to (60.628378 44.586204 120.18985)
  create_atoms CPU = 0.000 seconds
create_atoms 1 single 46.58900756446991 22.5185 88.51859621776505
Created 1 atoms
  using lattice units in orthogonal box = (18.076509 3.537576 79.866184) to (60.628378 44.586204 120.18985)
  create_atoms CPU = 0.000 seconds
create_atoms 1 single 45.6062318051576 23.4049 90.92473409742121
Created 1 atoms
  using lattice units in orthogonal box = (18.076509 3.537576 79.866184) to (60.628378 44.586204 120.18985)
  create_atoms CPU = 0.000 seconds
create_atoms 1 single 48.536231747851005 20.1572 88.3906841260745
Created 1 atoms
  using lattice units in orthogonal box = (18.076509 3.537576 79.866184) to (60.628378 44.586204 120.18985)
  create_atoms CPU = 0.000 seconds
create_atoms 1 single 49.35122223495702 22.9881 87.8919888825215
Created 1 atoms
  using lattice units in orthogonal box = (18.076509 3.537576 79.866184) to (60.628378 44.586204 120.18985)
  create_atoms CPU = 0.000 seconds
create_atoms 2 single 51.17056177650429 20.1258 88.12866911174785
Created 1 atoms
  using lattice units in orthogonal box = (18.076509 3.537576 79.866184) to (60.628378 44.586204 120.18985)
  create_atoms CPU = 0.000 seconds
create_atoms 3 single 50.76759724928367 21.9878 89.93820137535816
Created 1 atoms
  using lattice units in orthogonal box = (18.076509 3.537576 79.866184) to (60.628378 44.586204 120.18985)
  create_atoms CPU = 0.000 seconds
create_atoms 1 single 52.35787845272206 22.6614 88.10781077363897
Created 1 atoms
  using lattice units in orthogonal box = (18.076509 3.537576 79.866184) to (60.628378 44.586204 120.18985)
  create_atoms CPU = 0.000 seconds
create_atoms 1 single 50.5644529512894 19.5562 90.7817735243553
Created 1 atoms
  using lattice units in orthogonal box = (18.076509 3.537576 79.866184) to (60.628378 44.586204 120.18985)
  create_atoms CPU = 0.000 seconds
create_atoms 2 single 48.37196739255015 21.6158 90.48956630372493
Created 1 atoms
  using lattice units in orthogonal box = (18.076509 3.537576 79.866184) to (60.628378 44.586204 120.18985)
  create_atoms CPU = 0.000 seconds
create_atoms 5 single 53.15223593123209 20.4773 90.05773203438396
Created 1 atoms
  using lattice units in orthogonal box = (18.076509 3.537576 79.866184) to (60.628378 44.586204 120.18985)
  create_atoms CPU = 0.000 seconds
create_atoms 1 single 53.19619455587392 23.2986 90.83425272206306
Created 1 atoms
  using lattice units in orthogonal box = (18.076509 3.537576 79.866184) to (60.628378 44.586204 120.18985)
  create_atoms CPU = 0.000 seconds
create_atoms 3 single 23.292605501432664 25.7803 89.53379724928367
Created 1 atoms
  using lattice units in orthogonal box = (18.076509 3.537576 79.866184) to (60.628378 44.586204 120.18985)
  create_atoms CPU = 0.000 seconds
create_atoms 2 single 25.133402406876794 27.6177 89.31149879656161
Created 1 atoms
  using lattice units in orthogonal box = (18.076509 3.537576 79.866184) to (60.628378 44.586204 120.18985)
  create_atoms CPU = 0.000 seconds
create_atoms 1 single 24.788010143266476 25.6054 87.54044492836677
Created 1 atoms
  using lattice units in orthogonal box = (18.076509 3.537576 79.866184) to (60.628378 44.586204 120.18985)
  create_atoms CPU = 0.000 seconds
create_atoms 1 single 27.62831277936963 26.2637 88.26534361031518
Created 1 atoms
  using lattice units in orthogonal box = (18.076509 3.537576 79.866184) to (60.628378 44.586204 120.18985)
  create_atoms CPU = 0.000 seconds
create_atoms 1 single 26.009201833810888 25.0372 90.39679908309455
Created 1 atoms
  using lattice units in orthogonal box = (18.076509 3.537576 79.866184) to (60.628378 44.586204 120.18985)
  create_atoms CPU = 0.000 seconds
create_atoms 1 single 26.25630418338109 28.3736 86.76144790830946
Created 1 atoms
  using lattice units in orthogonal box = (18.076509 3.537576 79.866184) to (60.628378 44.586204 120.18985)
  create_atoms CPU = 0.000 seconds
create_atoms 3 single 27.25597363896848 27.2352 90.80901318051576
Created 1 atoms
  using lattice units in orthogonal box = (18.076509 3.537576 79.866184) to (60.628378 44.586204 120.18985)
  create_atoms CPU = 0.000 seconds
create_atoms 3 single 28.672681489971346 24.351 86.46085925501433
Created 1 atoms
  using lattice units in orthogonal box = (18.076509 3.537576 79.866184) to (60.628378 44.586204 120.18985)
  create_atoms CPU = 0.000 seconds
create_atoms 3 single 28.697828481375357 24.9059 90.20583575931232
Created 1 atoms
  using lattice units in orthogonal box = (18.076509 3.537576 79.866184) to (60.628378 44.586204 120.18985)
  create_atoms CPU = 0.000 seconds
create_atoms 1 single 30.53896418338109 25.351 88.19076790830945
Created 1 atoms
  using lattice units in orthogonal box = (18.076509 3.537576 79.866184) to (60.628378 44.586204 120.18985)
  create_atoms CPU = 0.000 seconds
create_atoms 1 single 29.754858510028654 27.4224 90.11002074498568
Created 1 atoms
  using lattice units in orthogonal box = (18.076509 3.537576 79.866184) to (60.628378 44.586204 120.18985)
  create_atoms CPU = 0.000 seconds
create_atoms 2 single 32.78154229226361 26.3538 89.2958788538682
Created 1 atoms
  using lattice units in orthogonal box = (18.076509 3.537576 79.866184) to (60.628378 44.586204 120.18985)
  create_atoms CPU = 0.000 seconds
create_atoms 3 single 30.9864823495702 27.8596 88.07380882521491
Created 1 atoms
  using lattice units in orthogonal box = (18.076509 3.537576 79.866184) to (60.628378 44.586204 120.18985)
  create_atoms CPU = 0.000 seconds
create_atoms 1 single 35.38450928366762 24.2008 89.25149535816618
Created 1 atoms
  using lattice units in orthogonal box = (18.076509 3.537576 79.866184) to (60.628378 44.586204 120.18985)
  create_atoms CPU = 0.000 seconds
create_atoms 3 single 33.18802521489972 24.8433 87.53358739255015
Created 1 atoms
  using lattice units in orthogonal box = (18.076509 3.537576 79.866184) to (60.628378 44.586204 120.18985)
  create_atoms CPU = 0.000 seconds
create_atoms 3 single 35.84728968481375 24.1541 86.68020515759312
Created 1 atoms
  using lattice units in orthogonal box = (18.076509 3.537576 79.866184) to (60.628378 44.586204 120.18985)
  create_atoms CPU = 0.000 seconds
create_atoms 1 single 37.20258836676218 28.2351 86.89945581661891
Created 1 atoms
  using lattice units in orthogonal box = (18.076509 3.537576 79.866184) to (60.628378 44.586204 120.18985)
  create_atoms CPU = 0.000 seconds
create_atoms 1 single 35.066365386819484 26.6586 87.72321730659027
Created 1 atoms
  using lattice units in orthogonal box = (18.076509 3.537576 79.866184) to (60.628378 44.586204 120.18985)
  create_atoms CPU = 0.000 seconds
create_atoms 1 single 37.64144767908309 26.3205 89.83057616045845
Created 1 atoms
  using lattice units in orthogonal box = (18.076509 3.537576 79.866184) to (60.628378 44.586204 120.18985)
  create_atoms CPU = 0.000 seconds
create_atoms 1 single 34.95934979942694 26.9995 90.68462510028652
Created 1 atoms
  using lattice units in orthogonal box = (18.076509 3.537576 79.866184) to (60.628378 44.586204 120.18985)
  create_atoms CPU = 0.000 seconds
create_atoms 2 single 37.90200510028654 25.6858 87.41824744985674
Created 1 atoms
  using lattice units in orthogonal box = (18.076509 3.537576 79.866184) to (60.628378 44.586204 120.18985)
  create_atoms CPU = 0.000 seconds
create_atoms 5 single 40.78075312320917 24.474 87.58092343839542
Created 1 atoms
  using lattice units in orthogonal box = (18.076509 3.537576 79.866184) to (60.628378 44.586204 120.18985)
  create_atoms CPU = 0.000 seconds
create_atoms 2 single 39.980099025787965 24.8325 89.88115048710603
Created 1 atoms
  using lattice units in orthogonal box = (18.076509 3.537576 79.866184) to (60.628378 44.586204 120.18985)
  create_atoms CPU = 0.000 seconds
create_atoms 1 single 40.25152853868195 27.1638 88.41868573065904
Created 1 atoms
  using lattice units in orthogonal box = (18.076509 3.537576 79.866184) to (60.628378 44.586204 120.18985)
  create_atoms CPU = 0.000 seconds
create_atoms 2 single 42.288758452722064 28.4736 90.06897077363897
Created 1 atoms
  using lattice units in orthogonal box = (18.076509 3.537576 79.866184) to (60.628378 44.586204 120.18985)
  create_atoms CPU = 0.000 seconds
create_atoms 1 single 43.92042681948425 24.1438 87.1871865902579
Created 1 atoms
  using lattice units in orthogonal box = (18.076509 3.537576 79.866184) to (60.628378 44.586204 120.18985)
  create_atoms CPU = 0.000 seconds
create_atoms 5 single 46.276870601719196 25.3579 88.96576469914041
Created 1 atoms
  using lattice units in orthogonal box = (18.076509 3.537576 79.866184) to (60.628378 44.586204 120.18985)
  create_atoms CPU = 0.000 seconds
create_atoms 1 single 43.3382700286533 26.7559 88.55526498567336
Created 1 atoms
  using lattice units in orthogonal box = (18.076509 3.537576 79.866184) to (60.628378 44.586204 120.18985)
  create_atoms CPU = 0.000 seconds
create_atoms 3 single 44.6319864756447 25.8909 90.69700676217765
Created 1 atoms
  using lattice units in orthogonal box = (18.076509 3.537576 79.866184) to (60.628378 44.586204 120.18985)
  create_atoms CPU = 0.000 seconds
create_atoms 2 single 45.78390171919771 27.8565 88.98509914040115
Created 1 atoms
  using lattice units in orthogonal box = (18.076509 3.537576 79.866184) to (60.628378 44.586204 120.18985)
  create_atoms CPU = 0.000 seconds
create_atoms 3 single 45.123483266475645 26.461 86.73620836676218
Created 1 atoms
  using lattice units in orthogonal box = (18.076509 3.537576 79.866184) to (60.628378 44.586204 120.18985)
  create_atoms CPU = 0.000 seconds
create_atoms 1 single 47.393263495702 28.0572 87.199568252149
Created 1 atoms
  using lattice units in orthogonal box = (18.076509 3.537576 79.866184) to (60.628378 44.586204 120.18985)
  create_atoms CPU = 0.000 seconds
create_atoms 1 single 47.92882171919771 27.3932 90.68033914040114
Created 1 atoms
  using lattice units in orthogonal box = (18.076509 3.537576 79.866184) to (60.628378 44.586204 120.18985)
  create_atoms CPU = 0.000 seconds
create_atoms 1 single 51.04351805157594 24.8411 86.55734097421204
Created 1 atoms
  using lattice units in orthogonal box = (18.076509 3.537576 79.866184) to (60.628378 44.586204 120.18985)
  create_atoms CPU = 0.000 seconds
create_atoms 1 single 49.1081535243553 25.9383 88.36687323782235
Created 1 atoms
  using lattice units in orthogonal box = (18.076509 3.537576 79.866184) to (60.628378 44.586204 120.18985)
  create_atoms CPU = 0.000 seconds
create_atoms 2 single 49.597275358166186 28.6159 89.04891232091691
Created 1 atoms
  using lattice units in orthogonal box = (18.076509 3.537576 79.866184) to (60.628378 44.586204 120.18985)
  create_atoms CPU = 0.000 seconds
create_atoms 3 single 50.978375931232094 24.3588 89.62561203438396
Created 1 atoms
  using lattice units in orthogonal box = (18.076509 3.537576 79.866184) to (60.628378 44.586204 120.18985)
  create_atoms CPU = 0.000 seconds
create_atoms 1 single 50.83014848137536 27.9007 87.08127575931232
Created 1 atoms
  using lattice units in orthogonal box = (18.076509 3.537576 79.866184) to (60.628378 44.586204 120.18985)
  create_atoms CPU = 0.000 seconds
create_atoms 1 single 48.681494785100284 24.2033 90.66605260744986
Created 1 atoms
  using lattice units in orthogonal box = (18.076509 3.537576 79.866184) to (60.628378 44.586204 120.18985)
  create_atoms CPU = 0.000 seconds
create_atoms 1 single 50.76558349570201 26.7507 90.889208252149
Created 1 atoms
  using lattice units in orthogonal box = (18.076509 3.537576 79.866184) to (60.628378 44.586204 120.18985)
  create_atoms CPU = 0.000 seconds
create_atoms 1 single 52.728142693409744 25.9856 88.91842865329512
Created 1 atoms
  using lattice units in orthogonal box = (18.076509 3.537576 79.866184) to (60.628378 44.586204 120.18985)
  create_atoms CPU = 0.000 seconds
create_atoms 1 single 27.207189914040118 29.3695 89.50360504297994
Created 1 atoms
  using lattice units in orthogonal box = (18.076509 3.537576 79.866184) to (60.628378 44.586204 120.18985)
  create_atoms CPU = 0.000 seconds
create_atoms 2 single 26.930861318051576 31.1095 87.46786934097422
Created 1 atoms
  using lattice units in orthogonal box = (18.076509 3.537576 79.866184) to (60.628378 44.586204 120.18985)
  create_atoms CPU = 0.000 seconds
create_atoms 1 single 25.377901203438395 31.7544 89.6128493982808
Created 1 atoms
  using lattice units in orthogonal box = (18.076509 3.537576 79.866184) to (60.628378 44.586204 120.18985)
  create_atoms CPU = 0.000 seconds
create_atoms 1 single 28.447767621776503 32.0732 89.82276618911175
Created 1 atoms
  using lattice units in orthogonal box = (18.076509 3.537576 79.866184) to (60.628378 44.586204 120.18985)
  create_atoms CPU = 0.000 seconds
create_atoms 2 single 28.81472853868195 28.8709 87.75388573065904
Created 1 atoms
  using lattice units in orthogonal box = (18.076509 3.537576 79.866184) to (60.628378 44.586204 120.18985)
  create_atoms CPU = 0.000 seconds
create_atoms 5 single 30.498842578796562 30.103 89.33492871060173
Created 1 atoms
  using lattice units in orthogonal box = (18.076509 3.537576 79.866184) to (60.628378 44.586204 120.18985)
  create_atoms CPU = 0.000 seconds
create_atoms 1 single 31.38925547277937 29.9323 86.60477226361031
Created 1 atoms
  using lattice units in orthogonal box = (18.076509 3.537576 79.866184) to (60.628378 44.586204 120.18985)
  create_atoms CPU = 0.000 seconds
create_atoms 5 single 29.48990011461318 31.9218 87.33709994269341
Created 1 atoms
  using lattice units in orthogonal box = (18.076509 3.537576 79.866184) to (60.628378 44.586204 120.18985)
  create_atoms CPU = 0.000 seconds
create_atoms 4 single 32.55079478510029 31.9354 88.83785260744986
Created 1 atoms
  using lattice units in orthogonal box = (18.076509 3.537576 79.866184) to (60.628378 44.586204 120.18985)
  create_atoms CPU = 0.000 seconds
create_atoms 2 single 36.06672005730659 28.9721 89.1574899713467
Created 1 atoms
  using lattice units in orthogonal box = (18.076509 3.537576 79.866184) to (60.628378 44.586204 120.18985)
  create_atoms CPU = 0.000 seconds
create_atoms 1 single 33.30908189111748 28.9745 88.74260905444127
Created 1 atoms
  using lattice units in orthogonal box = (18.076509 3.537576 79.866184) to (60.628378 44.586204 120.18985)
  create_atoms CPU = 0.000 seconds
create_atoms 2 single 34.71474114613181 29.5435 86.8128794269341
Created 1 atoms
  using lattice units in orthogonal box = (18.076509 3.537576 79.866184) to (60.628378 44.586204 120.18985)
  create_atoms CPU = 0.000 seconds
create_atoms 1 single 35.56649839541547 31.6089 88.43240080229226
Created 1 atoms
  using lattice units in orthogonal box = (18.076509 3.537576 79.866184) to (60.628378 44.586204 120.18985)
  create_atoms CPU = 0.000 seconds
create_atoms 1 single 34.67463971346705 30.4531 90.93883014326649
Created 1 atoms
  using lattice units in orthogonal box = (18.076509 3.537576 79.866184) to (60.628378 44.586204 120.18985)
  create_atoms CPU = 0.000 seconds
create_atoms 2 single 35.63754 32.9713 90.64548
Created 1 atoms
  using lattice units in orthogonal box = (18.076509 3.537576 79.866184) to (60.628378 44.586204 120.18985)
  create_atoms CPU = 0.000 seconds
create_atoms 1 single 37.85446934097421 31.4206 90.5556653295129
Created 1 atoms
  using lattice units in orthogonal box = (18.076509 3.537576 79.866184) to (60.628378 44.586204 120.18985)
  create_atoms CPU = 0.000 seconds
create_atoms 3 single 38.46844005730659 29.0686 89.19072997134671
Created 1 atoms
  using lattice units in orthogonal box = (18.076509 3.537576 79.866184) to (60.628378 44.586204 120.18985)
  create_atoms CPU = 0.000 seconds
create_atoms 1 single 38.09817696275072 30.9496 87.37291151862465
Created 1 atoms
  using lattice units in orthogonal box = (18.076509 3.537576 79.866184) to (60.628378 44.586204 120.18985)
  create_atoms CPU = 0.000 seconds
create_atoms 3 single 42.13982257879656 29.1192 87.63968871060173
Created 1 atoms
  using lattice units in orthogonal box = (18.076509 3.537576 79.866184) to (60.628378 44.586204 120.18985)
  create_atoms CPU = 0.000 seconds
create_atoms 1 single 40.720609856733525 30.5905 89.16339507163325
Created 1 atoms
  using lattice units in orthogonal box = (18.076509 3.537576 79.866184) to (60.628378 44.586204 120.18985)
  create_atoms CPU = 0.000 seconds
create_atoms 3 single 40.7103288252149 31.282 86.79573558739256
Created 1 atoms
  using lattice units in orthogonal box = (18.076509 3.537576 79.866184) to (60.628378 44.586204 120.18985)
  create_atoms CPU = 0.000 seconds
create_atoms 2 single 38.8788923782235 33.0232 88.77575381088825
Created 1 atoms
  using lattice units in orthogonal box = (18.076509 3.537576 79.866184) to (60.628378 44.586204 120.18985)
  create_atoms CPU = 0.000 seconds
create_atoms 1 single 40.853957478510026 33.025 90.86692126074499
Created 1 atoms
  using lattice units in orthogonal box = (18.076509 3.537576 79.866184) to (60.628378 44.586204 120.18985)
  create_atoms CPU = 0.000 seconds
create_atoms 5 single 43.35406045845273 32.4923 89.67751977077364
Created 1 atoms
  using lattice units in orthogonal box = (18.076509 3.537576 79.866184) to (60.628378 44.586204 120.18985)
  create_atoms CPU = 0.000 seconds
create_atoms 1 single 47.496589398280804 30.1769 89.6327553008596
Created 1 atoms
  using lattice units in orthogonal box = (18.076509 3.537576 79.866184) to (60.628378 44.586204 120.18985)
  create_atoms CPU = 0.000 seconds
create_atoms 1 single 44.30751031518624 29.9643 89.15939484240688
Created 1 atoms
  using lattice units in orthogonal box = (18.076509 3.537576 79.866184) to (60.628378 44.586204 120.18985)
  create_atoms CPU = 0.000 seconds
create_atoms 1 single 44.358485845272206 28.888 86.4228570773639
Created 1 atoms
  using lattice units in orthogonal box = (18.076509 3.537576 79.866184) to (60.628378 44.586204 120.18985)
  create_atoms CPU = 0.000 seconds
create_atoms 4 single 46.09191100286533 32.5912 88.98719449856735
Created 1 atoms
  using lattice units in orthogonal box = (18.076509 3.537576 79.866184) to (60.628378 44.586204 120.18985)
  create_atoms CPU = 0.000 seconds
create_atoms 2 single 46.0912876790831 30.6378 87.40405616045847
Created 1 atoms
  using lattice units in orthogonal box = (18.076509 3.537576 79.866184) to (60.628378 44.586204 120.18985)
  create_atoms CPU = 0.000 seconds
create_atoms 1 single 43.318922808022926 31.6779 86.97288859598854
Created 1 atoms
  using lattice units in orthogonal box = (18.076509 3.537576 79.866184) to (60.628378 44.586204 120.18985)
  create_atoms CPU = 0.000 seconds
create_atoms 4 single 51.19598286532951 30.7592 88.60945856733525
Created 1 atoms
  using lattice units in orthogonal box = (18.076509 3.537576 79.866184) to (60.628378 44.586204 120.18985)
  create_atoms CPU = 0.000 seconds
create_atoms 1 single 48.726726991404014 30.6427 86.977936504298
Created 1 atoms
  using lattice units in orthogonal box = (18.076509 3.537576 79.866184) to (60.628378 44.586204 120.18985)
  create_atoms CPU = 0.000 seconds
create_atoms 4 single 48.873772779369624 32.8861 88.69746361031518
Created 1 atoms
  using lattice units in orthogonal box = (18.076509 3.537576 79.866184) to (60.628378 44.586204 120.18985)
  create_atoms CPU = 0.000 seconds
create_atoms 4 single 51.31089753581662 32.4964 90.80825123209169
Created 1 atoms
  using lattice units in orthogonal box = (18.076509 3.537576 79.866184) to (60.628378 44.586204 120.18985)
  create_atoms CPU = 0.000 seconds
create_atoms 1 single 52.68766126074499 28.7593 90.08601936962752
Created 1 atoms
  using lattice units in orthogonal box = (18.076509 3.537576 79.866184) to (60.628378 44.586204 120.18985)
  create_atoms CPU = 0.000 seconds
create_atoms 2 single 26.69407180515759 34.1575 89.32921409742121
Created 1 atoms
  using lattice units in orthogonal box = (18.076509 3.537576 79.866184) to (60.628378 44.586204 120.18985)
  create_atoms CPU = 0.000 seconds
create_atoms 3 single 30.704206647564472 33.4447 90.18859667621777
Created 1 atoms
  using lattice units in orthogonal box = (18.076509 3.537576 79.866184) to (60.628378 44.586204 120.18985)
  create_atoms CPU = 0.000 seconds
create_atoms 2 single 29.078474441260745 34.411 88.39211277936963
Created 1 atoms
  using lattice units in orthogonal box = (18.076509 3.537576 79.866184) to (60.628378 44.586204 120.18985)
  create_atoms CPU = 0.000 seconds
create_atoms 1 single 31.421020057306592 33.9453 86.9968899713467
Created 1 atoms
  using lattice units in orthogonal box = (18.076509 3.537576 79.866184) to (60.628378 44.586204 120.18985)
  create_atoms CPU = 0.000 seconds
create_atoms 2 single 32.72681724928367 36.497 87.14604137535817
Created 1 atoms
  using lattice units in orthogonal box = (18.076509 3.537576 79.866184) to (60.628378 44.586204 120.18985)
  create_atoms CPU = 0.000 seconds
create_atoms 1 single 31.437158452722066 35.7814 89.23797077363898
Created 1 atoms
  using lattice units in orthogonal box = (18.076509 3.537576 79.866184) to (60.628378 44.586204 120.18985)
  create_atoms CPU = 0.000 seconds
create_atoms 4 single 33.242949512893986 33.9521 90.64557524355301
Created 1 atoms
  using lattice units in orthogonal box = (18.076509 3.537576 79.866184) to (60.628378 44.586204 120.18985)
  create_atoms CPU = 0.000 seconds
create_atoms 1 single 34.15681100286533 34.4365 88.32239449856733
Created 1 atoms
  using lattice units in orthogonal box = (18.076509 3.537576 79.866184) to (60.628378 44.586204 120.18985)
  create_atoms CPU = 0.000 seconds
create_atoms 3 single 36.71605621776504 34.2405 88.80042189111748
Created 1 atoms
  using lattice units in orthogonal box = (18.076509 3.537576 79.866184) to (60.628378 44.586204 120.18985)
  create_atoms CPU = 0.000 seconds
create_atoms 3 single 34.532845845272206 37.0561 89.0155770773639
Created 1 atoms
  using lattice units in orthogonal box = (18.076509 3.537576 79.866184) to (60.628378 44.586204 120.18985)
  create_atoms CPU = 0.000 seconds
create_atoms 1 single 37.30577157593123 37.0182 89.49741421203439
Created 1 atoms
  using lattice units in orthogonal box = (18.076509 3.537576 79.866184) to (60.628378 44.586204 120.18985)
  create_atoms CPU = 0.000 seconds
create_atoms 4 single 35.81109816618911 36.2954 86.93860091690544
Created 1 atoms
  using lattice units in orthogonal box = (18.076509 3.537576 79.866184) to (60.628378 44.586204 120.18985)
  create_atoms CPU = 0.000 seconds
create_atoms 2 single 35.4823935243553 35.4288 90.76015323782235
Created 1 atoms
  using lattice units in orthogonal box = (18.076509 3.537576 79.866184) to (60.628378 44.586204 120.18985)
  create_atoms CPU = 0.000 seconds
create_atoms 1 single 38.36729214899714 34.6038 90.77215392550144
Created 1 atoms
  using lattice units in orthogonal box = (18.076509 3.537576 79.866184) to (60.628378 44.586204 120.18985)
  create_atoms CPU = 0.000 seconds
create_atoms 1 single 38.71543306590258 35.462 87.50663346704872
Created 1 atoms
  using lattice units in orthogonal box = (18.076509 3.537576 79.866184) to (60.628378 44.586204 120.18985)
  create_atoms CPU = 0.000 seconds
create_atoms 1 single 41.299055071633234 33.6312 87.97942246418339
Created 1 atoms
  using lattice units in orthogonal box = (18.076509 3.537576 79.866184) to (60.628378 44.586204 120.18985)
  create_atoms CPU = 0.000 seconds
create_atoms 2 single 40.450526819484246 35.6099 89.68018659025789
Created 1 atoms
  using lattice units in orthogonal box = (18.076509 3.537576 79.866184) to (60.628378 44.586204 120.18985)
  create_atoms CPU = 0.000 seconds
create_atoms 1 single 42.05825862464183 36.5264 87.86532068767909
Created 1 atoms
  using lattice units in orthogonal box = (18.076509 3.537576 79.866184) to (60.628378 44.586204 120.18985)
  create_atoms CPU = 0.000 seconds
create_atoms 5 single 44.17440607449856 34.4458 88.11609696275072
Created 1 atoms
  using lattice units in orthogonal box = (18.076509 3.537576 79.866184) to (60.628378 44.586204 120.18985)
  create_atoms CPU = 0.000 seconds
create_atoms 1 single 43.04311186246419 35.2872 90.60014406876792
Created 1 atoms
  using lattice units in orthogonal box = (18.076509 3.537576 79.866184) to (60.628378 44.586204 120.18985)
  create_atoms CPU = 0.000 seconds
create_atoms 5 single 45.01630280802292 36.985 89.10024859598853
Created 1 atoms
  using lattice units in orthogonal box = (18.076509 3.537576 79.866184) to (60.628378 44.586204 120.18985)
  create_atoms CPU = 0.000 seconds
create_atoms 4 single 46.854608194842406 35.1073 87.9729459025788
Created 1 atoms
  using lattice units in orthogonal box = (18.076509 3.537576 79.866184) to (60.628378 44.586204 120.18985)
  create_atoms CPU = 0.000 seconds
create_atoms 4 single 45.87277644699141 34.5056 90.6598617765043
Created 1 atoms
  using lattice units in orthogonal box = (18.076509 3.537576 79.866184) to (60.628378 44.586204 120.18985)
  create_atoms CPU = 0.000 seconds
create_atoms 4 single 48.63164722063038 35.3753 90.33317638968481
Created 1 atoms
  using lattice units in orthogonal box = (18.076509 3.537576 79.866184) to (60.628378 44.586204 120.18985)
  create_atoms CPU = 0.000 seconds
create_atoms 1 single 35.58360928366762 38.8845 90.91349535816619
Created 1 atoms
  using lattice units in orthogonal box = (18.076509 3.537576 79.866184) to (60.628378 44.586204 120.18985)
  create_atoms CPU = 0.000 seconds
create_atoms 4 single 39.92551323782235 38.1993 89.09234338108884
Created 1 atoms
  using lattice units in orthogonal box = (18.076509 3.537576 79.866184) to (60.628378 44.586204 120.18985)
  create_atoms CPU = 0.000 seconds
create_atoms 1 single 42.83729977077364 38.2005 90.41480011461319
Created 1 atoms
  using lattice units in orthogonal box = (18.076509 3.537576 79.866184) to (60.628378 44.586204 120.18985)
  create_atoms CPU = 0.000 seconds
create_atoms 1 single 30.665398968481377 9.40716 92.49930051575932
Created 1 atoms
  using lattice units in orthogonal box = (18.076509 3.537576 79.866184) to (60.628378 44.586204 120.18985)
  create_atoms CPU = 0.000 seconds
create_atoms 3 single 33.2506859025788 8.58476 93.1119070487106
Created 1 atoms
  using lattice units in orthogonal box = (18.076509 3.537576 79.866184) to (60.628378 44.586204 120.18985)
  create_atoms CPU = 0.000 seconds
create_atoms 2 single 32.216377077363894 8.11011 95.26641146131806
Created 1 atoms
  using lattice units in orthogonal box = (18.076509 3.537576 79.866184) to (60.628378 44.586204 120.18985)
  create_atoms CPU = 0.000 seconds
create_atoms 1 single 29.745738108882524 9.6765 95.27403094555874
Created 1 atoms
  using lattice units in orthogonal box = (18.076509 3.537576 79.866184) to (60.628378 44.586204 120.18985)
  create_atoms CPU = 0.000 seconds
create_atoms 5 single 35.494958911174784 8.10996 92.05937054441262
Created 1 atoms
  using lattice units in orthogonal box = (18.076509 3.537576 79.866184) to (60.628378 44.586204 120.18985)
  create_atoms CPU = 0.000 seconds
create_atoms 1 single 35.11217787965616 7.74352 95.01011106017194
Created 1 atoms
  using lattice units in orthogonal box = (18.076509 3.537576 79.866184) to (60.628378 44.586204 120.18985)
  create_atoms CPU = 0.000 seconds
create_atoms 4 single 37.32575106017192 6.48641 93.91452446991406
Created 1 atoms
  using lattice units in orthogonal box = (18.076509 3.537576 79.866184) to (60.628378 44.586204 120.18985)
  create_atoms CPU = 0.000 seconds
create_atoms 3 single 37.75452166189112 8.82255 95.12668916905446
Created 1 atoms
  using lattice units in orthogonal box = (18.076509 3.537576 79.866184) to (60.628378 44.586204 120.18985)
  create_atoms CPU = 0.000 seconds
create_atoms 4 single 38.795878452722064 8.15853 92.59521077363897
Created 1 atoms
  using lattice units in orthogonal box = (18.076509 3.537576 79.866184) to (60.628378 44.586204 120.18985)
  create_atoms CPU = 0.000 seconds
create_atoms 4 single 41.63392108882521 8.65873 93.2203894555874
Created 1 atoms
  using lattice units in orthogonal box = (18.076509 3.537576 79.866184) to (60.628378 44.586204 120.18985)
  create_atoms CPU = 0.000 seconds
create_atoms 4 single 40.068318510028654 7.57044 95.02954074498568
Created 1 atoms
  using lattice units in orthogonal box = (18.076509 3.537576 79.866184) to (60.628378 44.586204 120.18985)
  create_atoms CPU = 0.000 seconds
create_atoms 4 single 45.84512183381089 8.37604 93.08923908309457
Created 1 atoms
  using lattice units in orthogonal box = (18.076509 3.537576 79.866184) to (60.628378 44.586204 120.18985)
  create_atoms CPU = 0.000 seconds
create_atoms 1 single 43.996922464183385 8.72683 95.20278876790832
Created 1 atoms
  using lattice units in orthogonal box = (18.076509 3.537576 79.866184) to (60.628378 44.586204 120.18985)
  create_atoms CPU = 0.000 seconds
create_atoms 1 single 48.454329398280805 9.4895 94.0204353008596
Created 1 atoms
  using lattice units in orthogonal box = (18.076509 3.537576 79.866184) to (60.628378 44.586204 120.18985)
  create_atoms CPU = 0.000 seconds
create_atoms 1 single 28.107718166189112 10.9463 91.95784091690545
Created 1 atoms
  using lattice units in orthogonal box = (18.076509 3.537576 79.866184) to (60.628378 44.586204 120.18985)
  create_atoms CPU = 0.000 seconds
create_atoms 3 single 25.4442970773639 13.3075 94.46865146131806
Created 1 atoms
  using lattice units in orthogonal box = (18.076509 3.537576 79.866184) to (60.628378 44.586204 120.18985)
  create_atoms CPU = 0.000 seconds
create_atoms 1 single 26.66088934097421 13.7167 92.2509053295129
Created 1 atoms
  using lattice units in orthogonal box = (18.076509 3.537576 79.866184) to (60.628378 44.586204 120.18985)
  create_atoms CPU = 0.000 seconds
create_atoms 1 single 27.84864206303725 12.0083 94.61627896848137
Created 1 atoms
  using lattice units in orthogonal box = (18.076509 3.537576 79.866184) to (60.628378 44.586204 120.18985)
  create_atoms CPU = 0.000 seconds
create_atoms 1 single 29.69680206303725 13.3707 91.89059896848138
Created 1 atoms
  using lattice units in orthogonal box = (18.076509 3.537576 79.866184) to (60.628378 44.586204 120.18985)
  create_atoms CPU = 0.000 seconds
create_atoms 3 single 30.19735518624642 11.7105 93.71232240687681
Created 1 atoms
  using lattice units in orthogonal box = (18.076509 3.537576 79.866184) to (60.628378 44.586204 120.18985)
  create_atoms CPU = 0.000 seconds
create_atoms 3 single 31.827980687679084 11.7135 91.86935965616047
Created 1 atoms
  using lattice units in orthogonal box = (18.076509 3.537576 79.866184) to (60.628378 44.586204 120.18985)
  create_atoms CPU = 0.000 seconds
create_atoms 1 single 32.18781805157593 13.6497 93.70394097421203
Created 1 atoms
  using lattice units in orthogonal box = (18.076509 3.537576 79.866184) to (60.628378 44.586204 120.18985)
  create_atoms CPU = 0.000 seconds
create_atoms 1 single 32.55805507163324 10.7207 94.4612224641834
Created 1 atoms
  using lattice units in orthogonal box = (18.076509 3.537576 79.866184) to (60.628378 44.586204 120.18985)
  create_atoms CPU = 0.000 seconds
create_atoms 1 single 29.324463323782233 14.7046 94.38921833810888
Created 1 atoms
  using lattice units in orthogonal box = (18.076509 3.537576 79.866184) to (60.628378 44.586204 120.18985)
  create_atoms CPU = 0.000 seconds
create_atoms 1 single 34.29332819484241 10.8543 92.16118590257881
Created 1 atoms
  using lattice units in orthogonal box = (18.076509 3.537576 79.866184) to (60.628378 44.586204 120.18985)
  create_atoms CPU = 0.000 seconds
create_atoms 4 single 37.083891747851006 10.1677 92.81160412607451
Created 1 atoms
  using lattice units in orthogonal box = (18.076509 3.537576 79.866184) to (60.628378 44.586204 120.18985)
  create_atoms CPU = 0.000 seconds
create_atoms 1 single 33.7357170773639 13.7737 91.34409146131806
Created 1 atoms
  using lattice units in orthogonal box = (18.076509 3.537576 79.866184) to (60.628378 44.586204 120.18985)
  create_atoms CPU = 0.000 seconds
create_atoms 2 single 34.79461638968481 12.9555 93.6768918051576
Created 1 atoms
  using lattice units in orthogonal box = (18.076509 3.537576 79.866184) to (60.628378 44.586204 120.18985)
  create_atoms CPU = 0.000 seconds
create_atoms 1 single 35.57595621776505 10.655 94.94982189111748
Created 1 atoms
  using lattice units in orthogonal box = (18.076509 3.537576 79.866184) to (60.628378 44.586204 120.18985)
  create_atoms CPU = 0.000 seconds
create_atoms 4 single 36.852334326647565 12.3072 91.40133283667623
Created 1 atoms
  using lattice units in orthogonal box = (18.076509 3.537576 79.866184) to (60.628378 44.586204 120.18985)
  create_atoms CPU = 0.000 seconds
create_atoms 4 single 37.48922888252149 12.8025 93.98338555873926
Created 1 atoms
  using lattice units in orthogonal box = (18.076509 3.537576 79.866184) to (60.628378 44.586204 120.18985)
  create_atoms CPU = 0.000 seconds
create_atoms 4 single 39.285483381088824 10.5491 91.3057083094556
Created 1 atoms
  using lattice units in orthogonal box = (18.076509 3.537576 79.866184) to (60.628378 44.586204 120.18985)
  create_atoms CPU = 0.000 seconds
create_atoms 4 single 39.61287747851003 13.0677 92.562161260745
Created 1 atoms
  using lattice units in orthogonal box = (18.076509 3.537576 79.866184) to (60.628378 44.586204 120.18985)
  create_atoms CPU = 0.000 seconds
create_atoms 4 single 41.645210773638965 11.4081 93.14419461318052
Created 1 atoms
  using lattice units in orthogonal box = (18.076509 3.537576 79.866184) to (60.628378 44.586204 120.18985)
  create_atoms CPU = 0.000 seconds
create_atoms 1 single 42.3619417765043 14.1541 93.74622911174785
Created 1 atoms
  using lattice units in orthogonal box = (18.076509 3.537576 79.866184) to (60.628378 44.586204 120.18985)
  create_atoms CPU = 0.000 seconds
create_atoms 4 single 39.414875243553006 10.564 94.1190123782235
Created 1 atoms
  using lattice units in orthogonal box = (18.076509 3.537576 79.866184) to (60.628378 44.586204 120.18985)
  create_atoms CPU = 0.000 seconds
create_atoms 1 single 39.99693467048711 13.6006 95.47023266475645
Created 1 atoms
  using lattice units in orthogonal box = (18.076509 3.537576 79.866184) to (60.628378 44.586204 120.18985)
  create_atoms CPU = 0.000 seconds
create_atoms 4 single 44.04678383954155 10.377 92.79750808022922
Created 1 atoms
  using lattice units in orthogonal box = (18.076509 3.537576 79.866184) to (60.628378 44.586204 120.18985)
  create_atoms CPU = 0.000 seconds
create_atoms 1 single 43.36651661891118 12.8046 91.18189169054442
Created 1 atoms
  using lattice units in orthogonal box = (18.076509 3.537576 79.866184) to (60.628378 44.586204 120.18985)
  create_atoms CPU = 0.000 seconds
create_atoms 1 single 46.799694899713465 11.1182 91.91155255014327
Created 1 atoms
  using lattice units in orthogonal box = (18.076509 3.537576 79.866184) to (60.628378 44.586204 120.18985)
  create_atoms CPU = 0.000 seconds
create_atoms 3 single 46.40082693409742 13.8321 91.75668653295129
Created 1 atoms
  using lattice units in orthogonal box = (18.076509 3.537576 79.866184) to (60.628378 44.586204 120.18985)
  create_atoms CPU = 0.000 seconds
create_atoms 3 single 44.54475100286533 14.7474 95.36927449856735
Created 1 atoms
  using lattice units in orthogonal box = (18.076509 3.537576 79.866184) to (60.628378 44.586204 120.18985)
  create_atoms CPU = 0.000 seconds
create_atoms 4 single 45.13276727793696 12.9645 93.39906636103153
Created 1 atoms
  using lattice units in orthogonal box = (18.076509 3.537576 79.866184) to (60.628378 44.586204 120.18985)
  create_atoms CPU = 0.000 seconds
create_atoms 2 single 46.04766040114613 10.6172 94.62246979942694
Created 1 atoms
  using lattice units in orthogonal box = (18.076509 3.537576 79.866184) to (60.628378 44.586204 120.18985)
  create_atoms CPU = 0.000 seconds
create_atoms 1 single 43.76589226361032 11.9307 95.34165386819484
Created 1 atoms
  using lattice units in orthogonal box = (18.076509 3.537576 79.866184) to (60.628378 44.586204 120.18985)
  create_atoms CPU = 0.000 seconds
create_atoms 5 single 50.09498378223496 11.4313 92.42405810888252
Created 1 atoms
  using lattice units in orthogonal box = (18.076509 3.537576 79.866184) to (60.628378 44.586204 120.18985)
  create_atoms CPU = 0.000 seconds
create_atoms 1 single 48.30458126074498 12.5693 94.10805936962751
Created 1 atoms
  using lattice units in orthogonal box = (18.076509 3.537576 79.866184) to (60.628378 44.586204 120.18985)
  create_atoms CPU = 0.000 seconds
create_atoms 1 single 50.857679656160464 10.7717 95.28546017191977
Created 1 atoms
  using lattice units in orthogonal box = (18.076509 3.537576 79.866184) to (60.628378 44.586204 120.18985)
  create_atoms CPU = 0.000 seconds
create_atoms 2 single 52.20491787965616 12.7375 93.91319106017193
Created 1 atoms
  using lattice units in orthogonal box = (18.076509 3.537576 79.866184) to (60.628378 44.586204 120.18985)
  create_atoms CPU = 0.000 seconds
create_atoms 1 single 50.12155186246418 14.4519 92.99342406876792
Created 1 atoms
  using lattice units in orthogonal box = (18.076509 3.537576 79.866184) to (60.628378 44.586204 120.18985)
  create_atoms CPU = 0.000 seconds
create_atoms 3 single 23.02266893982808 17.6238 94.25711553008595
Created 1 atoms
  using lattice units in orthogonal box = (18.076509 3.537576 79.866184) to (60.628378 44.586204 120.18985)
  create_atoms CPU = 0.000 seconds
create_atoms 1 single 28.569665157593125 16.0384 91.88021742120344
Created 1 atoms
  using lattice units in orthogonal box = (18.076509 3.537576 79.866184) to (60.628378 44.586204 120.18985)
  create_atoms CPU = 0.000 seconds
create_atoms 4 single 24.35447598853868 16.1146 92.49206200573066
Created 1 atoms
  using lattice units in orthogonal box = (18.076509 3.537576 79.866184) to (60.628378 44.586204 120.18985)
  create_atoms CPU = 0.000 seconds
create_atoms 1 single 26.511991002865333 18.1081 92.27795449856734
Created 1 atoms
  using lattice units in orthogonal box = (18.076509 3.537576 79.866184) to (60.628378 44.586204 120.18985)
  create_atoms CPU = 0.000 seconds
create_atoms 2 single 26.72514361031519 15.8514 93.89642819484241
Created 1 atoms
  using lattice units in orthogonal box = (18.076509 3.537576 79.866184) to (60.628378 44.586204 120.18985)
  create_atoms CPU = 0.000 seconds
create_atoms 1 single 25.626957707736388 18.2289 94.8537211461318
Created 1 atoms
  using lattice units in orthogonal box = (18.076509 3.537576 79.866184) to (60.628378 44.586204 120.18985)
  create_atoms CPU = 0.000 seconds
create_atoms 1 single 30.805038911174787 17.9736 91.52753054441261
Created 1 atoms
  using lattice units in orthogonal box = (18.076509 3.537576 79.866184) to (60.628378 44.586204 120.18985)
  create_atoms CPU = 0.000 seconds
create_atoms 3 single 31.592126934097422 15.346 91.75668653295129
Created 1 atoms
  using lattice units in orthogonal box = (18.076509 3.537576 79.866184) to (60.628378 44.586204 120.18985)
  create_atoms CPU = 0.000 seconds
create_atoms 2 single 29.163638166189113 17.9058 93.65308091690545
Created 1 atoms
  using lattice units in orthogonal box = (18.076509 3.537576 79.866184) to (60.628378 44.586204 120.18985)
  create_atoms CPU = 0.000 seconds
create_atoms 1 single 31.576825902578797 16.6128 94.00938704871061
Created 1 atoms
  using lattice units in orthogonal box = (18.076509 3.537576 79.866184) to (60.628378 44.586204 120.18985)
  create_atoms CPU = 0.000 seconds
create_atoms 1 single 33.74462326647564 18.6073 94.44788836676217
Created 1 atoms
  using lattice units in orthogonal box = (18.076509 3.537576 79.866184) to (60.628378 44.586204 120.18985)
  create_atoms CPU = 0.000 seconds
create_atoms 4 single 36.306143896848134 14.8937 92.60587805157593
Created 1 atoms
  using lattice units in orthogonal box = (18.076509 3.537576 79.866184) to (60.628378 44.586204 120.18985)
  create_atoms CPU = 0.000 seconds
create_atoms 4 single 35.92648676217765 19.2748 91.23465661891117
Created 1 atoms
  using lattice units in orthogonal box = (18.076509 3.537576 79.866184) to (60.628378 44.586204 120.18985)
[...]
create_atoms 1 single 35.96529255014327 22.2187 114.65990372492837
Created 1 atoms
  using lattice units in orthogonal box = (18.076509 3.537576 79.866184) to (60.628378 44.586204 120.18985)
  create_atoms CPU = 0.000 seconds
create_atoms 2 single 36.90458424068768 19.7369 114.85705787965617
Created 1 atoms
  using lattice units in orthogonal box = (18.076509 3.537576 79.866184) to (60.628378 44.586204 120.18985)
  create_atoms CPU = 0.000 seconds
create_atoms 1 single 38.288719197707735 20.6064 116.96194040114614
Created 1 atoms
  using lattice units in orthogonal box = (18.076509 3.537576 79.866184) to (60.628378 44.586204 120.18985)
  create_atoms CPU = 0.000 seconds
create_atoms 1 single 39.04137277936963 21.3128 114.29226361031519
Created 1 atoms
  using lattice units in orthogonal box = (18.076509 3.537576 79.866184) to (60.628378 44.586204 120.18985)
  create_atoms CPU = 0.000 seconds
create_atoms 1 single 38.48213753581662 23.5056 116.13713123209169
Created 1 atoms
  using lattice units in orthogonal box = (18.076509 3.537576 79.866184) to (60.628378 44.586204 120.18985)
  create_atoms CPU = 0.000 seconds
create_atoms 4 single 40.41495988538682 22.554 118.18582005730659
Created 1 atoms
  using lattice units in orthogonal box = (18.076509 3.537576 79.866184) to (60.628378 44.586204 120.18985)
  create_atoms CPU = 0.000 seconds
create_atoms 1 single 41.43485358166189 19.6694 113.67032320916906
Created 1 atoms
  using lattice units in orthogonal box = (18.076509 3.537576 79.866184) to (60.628378 44.586204 120.18985)
  create_atoms CPU = 0.000 seconds
create_atoms 2 single 43.83855071633238 19.5843 115.60662464183382
Created 1 atoms
  using lattice units in orthogonal box = (18.076509 3.537576 79.866184) to (60.628378 44.586204 120.18985)
  create_atoms CPU = 0.000 seconds
create_atoms 2 single 41.00850028653295 22.932 115.71424985673353
Created 1 atoms
  using lattice units in orthogonal box = (18.076509 3.537576 79.866184) to (60.628378 44.586204 120.18985)
  create_atoms CPU = 0.000 seconds
create_atoms 1 single 41.291866762177655 20.3174 116.46381661891118
Created 1 atoms
  using lattice units in orthogonal box = (18.076509 3.537576 79.866184) to (60.628378 44.586204 120.18985)
  create_atoms CPU = 0.000 seconds
create_atoms 1 single 43.93720315186247 21.8497 117.10194842406878
Created 1 atoms
  using lattice units in orthogonal box = (18.076509 3.537576 79.866184) to (60.628378 44.586204 120.18985)
  create_atoms CPU = 0.000 seconds
create_atoms 3 single 42.807279083094556 21.8767 114.81896045845272
Created 1 atoms
  using lattice units in orthogonal box = (18.076509 3.537576 79.866184) to (60.628378 44.586204 120.18985)
  create_atoms CPU = 0.000 seconds
create_atoms 2 single 45.194506017191976 22.515 114.83324699140401
Created 1 atoms
  using lattice units in orthogonal box = (18.076509 3.537576 79.866184) to (60.628378 44.586204 120.18985)
  create_atoms CPU = 0.000 seconds
create_atoms 2 single 46.18614183381089 20.0203 117.05527908309456
Created 1 atoms
  using lattice units in orthogonal box = (18.076509 3.537576 79.866184) to (60.628378 44.586204 120.18985)
  create_atoms CPU = 0.000 seconds
create_atoms 1 single 46.270345272206306 20.1738 114.53227736389685
Created 1 atoms
  using lattice units in orthogonal box = (18.076509 3.537576 79.866184) to (60.628378 44.586204 120.18985)
  create_atoms CPU = 0.000 seconds
create_atoms 1 single 46.68810515759313 22.8361 117.04289742120345
Created 1 atoms
  using lattice units in orthogonal box = (18.076509 3.537576 79.866184) to (60.628378 44.586204 120.18985)
  create_atoms CPU = 0.000 seconds
create_atoms 1 single 48.70346389684814 21.1201 116.07331805157594
Created 1 atoms
  using lattice units in orthogonal box = (18.076509 3.537576 79.866184) to (60.628378 44.586204 120.18985)
  create_atoms CPU = 0.000 seconds
create_atoms 2 single 47.614458739255014 23.1693 114.7056206303725
Created 1 atoms
  using lattice units in orthogonal box = (18.076509 3.537576 79.866184) to (60.628378 44.586204 120.18985)
  create_atoms CPU = 0.000 seconds
create_atoms 1 single 50.531734957020056 22.5502 114.45608252148998
Created 1 atoms
  using lattice units in orthogonal box = (18.076509 3.537576 79.866184) to (60.628378 44.586204 120.18985)
  create_atoms CPU = 0.000 seconds
create_atoms 5 single 29.710591404011463 25.7191 114.17130429799428
Created 1 atoms
  using lattice units in orthogonal box = (18.076509 3.537576 79.866184) to (60.628378 44.586204 120.18985)
  create_atoms CPU = 0.000 seconds
create_atoms 3 single 34.22649971346705 24.3289 115.96855014326648
Created 1 atoms
  using lattice units in orthogonal box = (18.076509 3.537576 79.866184) to (60.628378 44.586204 120.18985)
  create_atoms CPU = 0.000 seconds
create_atoms 3 single 34.88142578796562 26.8068 115.8656871060172
Created 1 atoms
  using lattice units in orthogonal box = (18.076509 3.537576 79.866184) to (60.628378 44.586204 120.18985)
  create_atoms CPU = 0.000 seconds
create_atoms 1 single 32.58382979942694 26.3852 114.41798510028654
Created 1 atoms
  using lattice units in orthogonal box = (18.076509 3.537576 79.866184) to (60.628378 44.586204 120.18985)
  create_atoms CPU = 0.000 seconds
create_atoms 1 single 36.33986246418338 25.1705 114.54846876790832
Created 1 atoms
  using lattice units in orthogonal box = (18.076509 3.537576 79.866184) to (60.628378 44.586204 120.18985)
  create_atoms CPU = 0.000 seconds
create_atoms 3 single 39.4180776504298 24.2552 113.95891117478511
Created 1 atoms
  using lattice units in orthogonal box = (18.076509 3.537576 79.866184) to (60.628378 44.586204 120.18985)
  create_atoms CPU = 0.000 seconds
create_atoms 1 single 40.19845787965616 25.6164 117.58007106017192
Created 1 atoms
  using lattice units in orthogonal box = (18.076509 3.537576 79.866184) to (60.628378 44.586204 120.18985)
  create_atoms CPU = 0.000 seconds
create_atoms 2 single 38.83127306590258 26.1375 115.32851346704871
Created 1 atoms
  using lattice units in orthogonal box = (18.076509 3.537576 79.866184) to (60.628378 44.586204 120.18985)
  create_atoms CPU = 0.000 seconds
create_atoms 1 single 37.17472893982808 28.2445 115.63043553008596
Created 1 atoms
  using lattice units in orthogonal box = (18.076509 3.537576 79.866184) to (60.628378 44.586204 120.18985)
  create_atoms CPU = 0.000 seconds
create_atoms 1 single 40.403251289398284 28.5451 116.68192435530086
Created 1 atoms
  using lattice units in orthogonal box = (18.076509 3.537576 79.866184) to (60.628378 44.586204 120.18985)
  create_atoms CPU = 0.000 seconds
create_atoms 5 single 39.94681747851003 27.8821 114.06844126074499
Created 1 atoms
  using lattice units in orthogonal box = (18.076509 3.537576 79.866184) to (60.628378 44.586204 120.18985)
  create_atoms CPU = 0.000 seconds
create_atoms 1 single 37.064863323782234 25.7621 117.32481833810888
Created 1 atoms
  using lattice units in orthogonal box = (18.076509 3.537576 79.866184) to (60.628378 44.586204 120.18985)
  create_atoms CPU = 0.000 seconds
create_atoms 3 single 43.93310916905444 26.681 113.9331954154728
Created 1 atoms
  using lattice units in orthogonal box = (18.076509 3.537576 79.866184) to (60.628378 44.586204 120.18985)
  create_atoms CPU = 0.000 seconds
create_atoms 2 single 42.50355014326647 24.0934 117.52292492836676
Created 1 atoms
  using lattice units in orthogonal box = (18.076509 3.537576 79.866184) to (60.628378 44.586204 120.18985)
  create_atoms CPU = 0.000 seconds
create_atoms 1 single 41.635581661891116 25.4338 115.17040916905445
Created 1 atoms
  using lattice units in orthogonal box = (18.076509 3.537576 79.866184) to (60.628378 44.586204 120.18985)
  create_atoms CPU = 0.000 seconds
create_atoms 1 single 44.52265616045845 24.7408 116.01617191977078
Created 1 atoms
  using lattice units in orthogonal box = (18.076509 3.537576 79.866184) to (60.628378 44.586204 120.18985)
  create_atoms CPU = 0.000 seconds
create_atoms 2 single 42.44963467048711 28.0181 115.08183266475645
Created 1 atoms
  using lattice units in orthogonal box = (18.076509 3.537576 79.866184) to (60.628378 44.586204 120.18985)
  create_atoms CPU = 0.000 seconds
create_atoms 1 single 42.98793982808023 26.9452 117.44673008595989
Created 1 atoms
  using lattice units in orthogonal box = (18.076509 3.537576 79.866184) to (60.628378 44.586204 120.18985)
  create_atoms CPU = 0.000 seconds
create_atoms 1 single 45.387238681948425 27.6113 115.96093065902579
Created 1 atoms
  using lattice units in orthogonal box = (18.076509 3.537576 79.866184) to (60.628378 44.586204 120.18985)
  create_atoms CPU = 0.000 seconds
create_atoms 1 single 49.465389111747854 25.4032 114.52370544412608
Created 1 atoms
  using lattice units in orthogonal box = (18.076509 3.537576 79.866184) to (60.628378 44.586204 120.18985)
  create_atoms CPU = 0.000 seconds
create_atoms 2 single 47.34840601719198 25.4155 116.16284699140401
Created 1 atoms
  using lattice units in orthogonal box = (18.076509 3.537576 79.866184) to (60.628378 44.586204 120.18985)
  create_atoms CPU = 0.000 seconds
create_atoms 5 single 47.91239140401146 27.9653 114.83610429799427
Created 1 atoms
  using lattice units in orthogonal box = (18.076509 3.537576 79.866184) to (60.628378 44.586204 120.18985)
  create_atoms CPU = 0.000 seconds
create_atoms 3 single 50.39396189111748 27.8776 113.80556905444126
Created 1 atoms
  using lattice units in orthogonal box = (18.076509 3.537576 79.866184) to (60.628378 44.586204 120.18985)
  create_atoms CPU = 0.000 seconds
create_atoms 5 single 34.03722034383954 29.2631 115.12373982808025
Created 1 atoms
  using lattice units in orthogonal box = (18.076509 3.537576 79.866184) to (60.628378 44.586204 120.18985)
  create_atoms CPU = 0.000 seconds
create_atoms 1 single 33.20432693409742 31.9721 114.02748653295129
Created 1 atoms
  using lattice units in orthogonal box = (18.076509 3.537576 79.866184) to (60.628378 44.586204 120.18985)
  create_atoms CPU = 0.000 seconds
create_atoms 3 single 38.87349742120344 30.142 114.99135128939828
Created 1 atoms
  using lattice units in orthogonal box = (18.076509 3.537576 79.866184) to (60.628378 44.586204 120.18985)
  create_atoms CPU = 0.000 seconds
create_atoms 1 single 36.17210744985673 30.8692 114.03129627507164
Created 1 atoms
  using lattice units in orthogonal box = (18.076509 3.537576 79.866184) to (60.628378 44.586204 120.18985)
  create_atoms CPU = 0.000 seconds
create_atoms 1 single 38.27202378223496 32.8202 114.92753810888253
Created 1 atoms
  using lattice units in orthogonal box = (18.076509 3.537576 79.866184) to (60.628378 44.586204 120.18985)
  create_atoms CPU = 0.000 seconds
create_atoms 1 single 40.76995386819484 31.6209 116.3685730659026
Created 1 atoms
  using lattice units in orthogonal box = (18.076509 3.537576 79.866184) to (60.628378 44.586204 120.18985)
  create_atoms CPU = 0.000 seconds
create_atoms 1 single 44.34217077363897 29.723 114.01891461318051
Created 1 atoms
  using lattice units in orthogonal box = (18.076509 3.537576 79.866184) to (60.628378 44.586204 120.18985)
  create_atoms CPU = 0.000 seconds
create_atoms 1 single 41.37864154727794 30.3652 114.02462922636103
Created 1 atoms
  using lattice units in orthogonal box = (18.076509 3.537576 79.866184) to (60.628378 44.586204 120.18985)
  create_atoms CPU = 0.000 seconds
create_atoms 1 single 43.42674126074498 29.9895 116.64477936962751
Created 1 atoms
  using lattice units in orthogonal box = (18.076509 3.537576 79.866184) to (60.628378 44.586204 120.18985)
  create_atoms CPU = 0.000 seconds
create_atoms 2 single 43.0100664756447 32.2942 115.09516676217766
Created 1 atoms
  using lattice units in orthogonal box = (18.076509 3.537576 79.866184) to (60.628378 44.586204 120.18985)
  create_atoms CPU = 0.000 seconds
create_atoms 1 single 48.33221833810888 33.0213 113.85319083094556
Created 1 atoms
  using lattice units in orthogonal box = (18.076509 3.537576 79.866184) to (60.628378 44.586204 120.18985)
  create_atoms CPU = 0.000 seconds
create_atoms 1 single 45.58604785100287 32.4749 114.55132607449858
Created 1 atoms
  using lattice units in orthogonal box = (18.076509 3.537576 79.866184) to (60.628378 44.586204 120.18985)
  create_atoms CPU = 0.000 seconds
create_atoms 1 single 46.733822636103156 30.2766 116.10093868194843
Created 1 atoms
  using lattice units in orthogonal box = (18.076509 3.537576 79.866184) to (60.628378 44.586204 120.18985)
  create_atoms CPU = 0.000 seconds
create_atoms 1 single 49.52080830945559 30.4077 114.8132458452722
Created 1 atoms
  using lattice units in orthogonal box = (18.076509 3.537576 79.866184) to (60.628378 44.586204 120.18985)
  create_atoms CPU = 0.000 seconds
create_atoms 1 single 35.60473524355301 34.0786 113.8303323782235
Created 1 atoms
  using lattice units in orthogonal box = (18.076509 3.537576 79.866184) to (60.628378 44.586204 120.18985)
  create_atoms CPU = 0.000 seconds
create_atoms 2 single 38.29665845272206 35.2839 113.66937077363897
Created 1 atoms
  using lattice units in orthogonal box = (18.076509 3.537576 79.866184) to (60.628378 44.586204 120.18985)
  create_atoms CPU = 0.000 seconds
create_atoms 1 single 43.56800429799427 34.7021 113.93414785100286
Created 1 atoms
  using lattice units in orthogonal box = (18.076509 3.537576 79.866184) to (60.628378 44.586204 120.18985)
  create_atoms CPU = 0.000 seconds
group surface id  1 2 3 4 5 6 8 9 10 13 14 15 16 17 18 19 21 22 23 24 26 27 31 33 34 37 38 40 42 43 44 45 47 48 49 50 51 54 55 57 60 62 63 64 66 67 68 69 70 71 72 73 74 75 78 79 81 82 83 84 85 86 87 88 89 90 91 92 93 94 95 96 97 99 100 101 103 105 106 110 111 112 113 114 115 117 118 119 121 122 123 124 144 146 148 149 151 153 154 156 157 158 179 181 184 185 186 187 188 191 193 219 223 226 228 229 234 257 258 259 260 261 262 264 265 266 267 271 272 273 276 279 282 283 285 286 287 288 289 290 291 292 293 294 295 297 298 299 300 301 302 303 304 305 306 326 328 334 336 337 339 341 372 375 376 378 379 380 381 382 420 421 422 423 424 425 426 429 465 466 467 468 469 470 471 506 507 508 509 510 511 513 514 515 517 533 541 542 543 545 546 547 548 549 551 552 553 554 555 557 558 559 560 561 562 563 564 565 566 567 569 572 573 575 576 579 580 581 582 583 585 586 589 590 591 618 619 621 622 623 624 625 628 664 665 666 667 669 671 672 710 711 713 714 715 760 763 764 765 766 767 768 769 808 812 813 814 815 818 820 845 848 849 850 851 852 853 855 857 862 863 865 867 869 871 872 873 874 875 876 877 878 879 881 883 885 887 889 890 892 893 894 895 896 897 898 899 900 902 932 935 937 938 939 940 981 982 983 984 985 986 988 1028 1029 1031 1034 1035 1039 1040 1078 1079 1080 1082 1083 1085 1090 1121 1122 1124 1125 1126 1128 1129 1135 1156 1158 1159 1160 1161 1162 1163 1164 1165 1166 1167 1172 1173 1176 1182 1183 1184 1186 1187 1188 1189 1190 1191 1192 1193 1195 1196 1197 1198 1199 1200 1201 1202 1203 1204 1205 1206 1229 1230 1232 1233 1234 1235 1237 1238 1239 1241 1276 1277 1278 1279 1280 1322 1323 1324 1325 1326 1327 1328 1366 1369 1370 1371 1377 1409 1410 1411 1412 1413 1414 1415 1416 1420 1440 1442 1443 1444 1445 1446 1448 1449 1450 1451 1453 1454 1455 1458 1459 1461 1462 1463 1464 1465 1466 1467 1468 1469 1470 1471 1472 1473 1476 1478 1481 1482 1484 1485 1486 1487 1488 1489 1490 1491 1493 1496 1512 1518 1521 1522 1523 1524 1525 1526 1531 1532 1556 1557 1560 1561 1562 1563 1566 1567 1595 1598 1599 1600 1601 1602 1603 1604 1629 1630 1631 1632 1633 1634 1635 1638 1639 1640 1642 1645 1646 1647 1648 1651 1653 1657 1658 1659 1660 1661 1662 1663 1664 1665 1666 1667 1668 1669 1670 1671 1672 1673 1674 1675 1676 1677 1678 1680 1681 1682 1683 1686 1688 1689 1691 1693 1694 1697 1699 1700 1701 1702 1703 1704 1705 1706 1709 1711 1712 1714 1716 1718 1720 1721 1722 1723 1724 1725 1726 1727 1728 1729 1730 1731 1734 1735 1736 1737 1738 1739 1740 1741 1742 
570 atoms in group surface
            fix freeze surface setforce 0 0 0 
            minimize 0 1e-4 100000 100000
Neighbor list info ...
  update: every = 1 steps, delay = 0 steps, check = yes
  max neighbors/atom: 2000, page size: 100000
  master list distance cutoff = 9.1553683
  ghost atom cutoff = 9.1553683
  binsize = 4.5776842, bins = 10 9 9
  1 neighbor lists, perpetual/occasional/extra = 1 0 0
  (1) pair eam/alloy, perpetual
      attributes: half, newton on
      pair build: half/bin/atomonly/newton
      stencil: half/bin/3d
      bin: standard
Per MPI rank memory allocation (min/avg/max) = 4.083 | 4.287 | 4.365 Mbytes
   Step          Temp          E_pair         E_mol          TotEng         Press          Volume    
         0   0             -9273.9996      0             -9273.9996      38581.436      51880.873    
       115   0             -9294.6995      0             -9294.6995      36289.998      51880.873    
Loop time of 0.058566 on 192 procs for 115 steps with 1742 atoms

99.7% CPU use with 192 MPI tasks x 1 OpenMP threads

Minimization stats:
  Stopping criterion = linesearch alpha is zero
  Energy initial, next-to-last, final = 
     -9273.99955513363   -9294.6995208848   -9294.6995208848
  Force two-norm initial, final = 14.599206 0.026177849
  Force max component initial, final = 0.99452497 0.006983009
  Final line search alpha, max atom move = 1.5258789e-05 1.0655226e-07
  Iterations, force evaluations = 115 261

MPI task timing breakdown:
Section |  min time  |  avg time  |  max time  |%varavg| %total
---------------------------------------------------------------
Pair    | 0.021382   | 0.027562   | 0.03981    |   3.1 | 47.06
Neigh   | 2.087e-06  | 2.2313e-05 | 6.2964e-05 |   0.0 |  0.04
Comm    | 0.0035122  | 0.019495   | 0.027701   |   3.4 | 33.29
Output  | 0          | 0          | 0          |   0.0 |  0.00
Modify  | 1.3962e-05 | 2.3009e-05 | 3.6982e-05 |   0.0 |  0.04
Other   |            | 0.01146    |            |       | 19.57

Nlocal:        9.07292 ave          21 max           0 min
Histogram: 52 16 11 6 11 18 16 35 20 7
Nghost:        372.964 ave         822 max          76 min
Histogram: 13 29 39 29 30 14 14 8 8 8
Neighs:        635.026 ave        1922 max           0 min
Histogram: 65 20 14 19 9 17 18 18 9 3

Total # of neighbors = 121925
Ave neighs/atom = 69.991389
Neighbor list builds = 1
Dangerous builds = 0
                                                                                                                                                                                                                                                                                                                                                                                                                                                                                                                                                                                                                                                                                                                                                                                                                                                                                                                                                                                                                                                                                                                                                                                                                                                                                                                                                                                                                                                                                                                                                                                                                                                                                                                                                                                                                                           
Total wall time: 0:00:00
