# LAMMPS data file written by OVITO Pro 3.12.4

851 atoms
5 atom types

0.0 250.0 xlo xhi
0.0 90.51 ylo yhi
0.0 181.02 zlo zhi

Atoms  # atomic

1 1 33.1527 29.925 87.0393
2 1 35.9135 25.7283 88.7222
3 1 35.4738 28.6195 88.1031
4 2 38.3819 25.6159 87.438
5 1 38.3244 29.9823 85.0901
6 3 37.5829 27.9033 86.6274
7 1 38.1469 30.2862 88.0257
8 4 41.2739 29.7552 84.5643
9 4 43.3455 28.0512 85.8677
10 1 40.3172 28.4103 86.9738
11 1 42.9203 28.0864 88.6855
12 1 40.7889 25.9168 88.6667
13 3 44.5523 30.2764 88.437
14 3 47.2391 29.9289 87.4364
15 1 45.7583 27.7248 87.7965
16 1 31.5 31.8192 88.5887
17 1 34.0924 32.6998 86.9499
18 5 31.3098 34.4385 87.5149
19 4 39.7093 32.4884 83.9155
20 3 35.8311 30.5224 86.202
21 2 35.9274 31.5157 88.5354
22 1 37.9119 34.9853 84.1928
23 3 40.11 31.4329 86.4942
24 1 37.5019 32.6975 86.1287
25 1 39.1854 33.3035 88.5476
26 1 36.2711 34.1461 88.5694
27 2 35.7467 34.8659 85.8953
28 3 44.2977 32.674 87.2529
29 1 45.0634 30.5369 85.8821
30 3 42.5143 30.3345 87.0233
31 4 41.8462 32.827 87.7182
32 2 42.8127 34.7763 84.0007
33 1 40.4166 34.4709 85.9622
34 1 42.5496 32.2533 85.0761
35 5 46.1318 34.6519 87.194
36 5 49.0693 33.705 88.5501
37 1 47.5556 32.3436 86.3393
38 1 45.2456 33.4789 84.7581
39 1 35.026 24.5556 91.44
40 1 34.71 23.9182 94.4202
41 1 38.1839 24.5791 90.3697
42 5 37.2435 25.2742 93.1315
43 1 39.7625 23.7334 93.0373
44 1 36.9691 22.4658 93.1248
45 2 39.136 21.6373 94.7439
46 1 43.6651 25.2575 89.7769
47 1 42.993 24.1043 92.8255
48 2 41.1398 24.8685 91.0309
49 5 41.8004 22.2476 94.6999
50 3 47.532 24.6778 92.442
51 3 29.837 29.4981 93.8529
52 5 32.3072 25.4237 93.4475
53 1 33.87 27.3302 90.3798
54 5 31.7091 29.2104 89.7562
55 1 35.3047 29.9834 93.7025
56 1 34.6749 27.0543 93.283
57 1 31.735 28.1787 92.563
58 3 33.6448 29.7494 91.6743
59 3 36.5099 26.8202 91.1232
60 1 36.1352 29.5077 90.8047
61 1 38.273 29.847 94.6676
62 1 38.9352 29.6783 91.6796
63 1 39.4116 26.7423 92.0158
64 2 37.1947 27.97 93.1813
65 1 38.2568 27.6379 89.3285
66 3 40.7105 28.1326 90.1728
67 1 43.8666 29.7066 91.0012
68 2 45.0836 27.4478 90.441
69 3 41.5033 29.9345 91.8268
70 1 42.5433 27.1784 91.7837
71 1 43.733 26.6009 94.3859
72 1 43.1595 29.5194 94.1178
73 3 41.225 25.9037 93.8048
74 2 40.7501 28.3896 93.7192
75 1 48.7953 27.8821 89.0518
76 1 46.7349 25.4699 89.7015
77 2 45.1907 25.6273 92.1786
78 1 46.6741 29.5983 90.0079
79 1 49.0973 30.1137 91.7675
80 3 49.303 25.5899 90.7492
81 1 47.5783 27.3611 91.7128
82 3 47.7005 28.801 93.8008
83 1 46.7334 26.3534 94.4383
84 2 45.2682 28.2009 92.8554
85 1 49.6596 26.2811 93.619
86 3 50.8516 29.649 89.788
87 1 52.1093 29.6512 92.2687
88 3 50.3405 27.7633 91.4927
89 3 50.06 29.1396 93.9472
90 2 28.8583 32.3802 89.3599
91 1 29.1064 35.1605 89.2083
92 1 28.1475 33.574 91.8201
93 1 30.0287 30.9834 91.4948
94 1 27.5652 30.9431 93.2456
95 3 27.3233 33.5048 94.3794
96 3 33.9078 30.6497 89.4106
97 3 33.3949 33.5917 89.385
98 3 30.8256 33.5671 90.4869
99 2 30.6141 33.3376 92.8776
100 1 35.1882 32.4155 91.0521
101 1 33.011 34.1478 92.1339
102 5 34.7498 32.6825 93.9679
103 3 32.5157 31.7997 91.0448
104 1 32.2202 31.0497 93.5975
105 5 35.6658 35.0511 93.0133
106 1 37.7025 34.306 91.1768
107 2 37.8321 31.7146 90.2845
108 4 39.4943 33.6937 93.7492
109 4 37.4239 32.0623 93.0553
110 1 40.8925 30.4978 89.1605
111 1 43.2612 32.2557 89.9343
112 4 44.3676 34.9759 94.0876
113 1 40.3844 32.5108 91.2727
114 1 41.8055 35.0596 89.4914
115 3 44.4355 34.511 89.2444
116 4 42.1576 33.6543 94.673
117 5 42.5039 34.267 92.0882
118 3 43.2137 31.8046 92.6545
119 4 40.7491 31.2664 93.9014
120 2 49.3248 35.0785 91.0537
121 2 48.8479 31.0686 89.0647
122 1 45.2637 33.5736 91.7403
123 2 49.5095 33.951 93.2726
124 4 46.9976 33.7084 94.0779
125 1 48.0693 32.7825 91.3463
126 1 48.2372 31.2124 94.6986
127 1 46.1128 30.7377 92.617
128 1 46.2508 32.3231 88.996
129 1 51.0591 31.9613 93.8391
130 3 53.2545 32.142 92.2561
131 1 53.8548 33.4521 94.5757
132 1 52.0393 34.6972 92.2648
133 1 50.9567 32.3891 90.6656
134 1 34.9109 22.2818 98.9185
135 3 33.5807 23.1244 96.6972
136 2 31.5643 24.3787 95.8692
137 1 32.8817 24.404 99.0036
138 2 35.5714 24.4756 97.3716
139 2 39.9058 25.1891 97.9591
140 3 35.8288 24.5515 100.206
141 1 37.8126 23.357 98.6627
142 2 37.0153 20.5313 98.8697
143 1 39.6219 21.2689 99.8733
144 2 38.6823 21.2408 97.1305
145 1 37.9381 23.936 95.711
146 1 36.0739 21.8142 96.2097
147 2 43.7739 24.3617 100.75
148 4 43.8868 21.9579 96.8422
149 1 40.9993 24.1613 100.219
150 2 43.259 24.1553 98.2777
151 1 40.9366 22.7302 97.4643
152 1 42.8737 21.8303 99.7336
153 2 42.881 24.3785 95.8403
154 3 40.4362 24.4379 95.517
155 3 48.2101 24.2295 100.76
156 1 48.1131 23.4467 98.1214
157 2 47.9746 23.9139 95.0763
158 1 45.8273 22.6613 99.9457
159 3 45.6054 23.8291 97.4845
160 5 49.9876 25.0538 96.3395
161 1 45.2656 23.8501 94.8085
162 1 28.3207 29.4695 96.1383
163 1 29.899 25.9658 99.67
164 1 27.9914 28.2636 99.9186
165 3 29.8736 28.1101 97.9377
166 1 30.7187 27.3448 95.3648
167 3 31.4305 26.1367 97.6361
168 2 31.0462 29.9927 96.1069
169 2 34.8785 29.7314 98.1797
170 1 34.8231 26.7498 98.8763
171 1 34.1234 29.2469 100.682
172 2 32.3721 26.9084 100.006
173 1 32.5324 28.5315 97.7594
174 1 30.9918 28.9943 100.47
175 1 33.6272 26.1308 96.1585
176 2 33.1247 28.6642 94.9641
177 1 39.981 27.8744 98.8914
178 3 36.9999 28.1454 99.3876
179 2 38.1234 29.2699 97.401
180 1 37.5281 26.335 97.618
181 1 38.2944 25.7958 100.461
182 1 35.7898 28.367 96.144
183 1 38.9176 26.8462 95.1121
184 3 36.2031 25.9577 95.3098
185 1 42.1792 30.0722 98.8255
186 1 44.7396 26.3147 97.0787
187 1 44.7706 28.5736 99.377
188 1 42.6258 26.519 99.2619
189 2 43.3819 28.7024 96.8209
190 1 41.6123 26.6292 96.4681
191 1 40.6545 29.3792 96.3032
192 1 48.9392 26.1653 99.0065
193 2 46.9344 28.019 97.9808
194 1 49.4543 29.1016 98.8909
195 2 47.3133 25.6922 96.9179
196 1 46.012 25.5638 99.6722
197 1 48.8643 27.8482 96.0834
198 1 45.8228 28.9794 95.6084
199 3 47.6997 30.2673 97.1143
200 1 50.6461 30.202 96.3377
201 1 53.4062 29.4095 97.411
202 3 52.0805 28.3899 99.8442
203 1 51.4823 27.1178 97.67
204 1 52.0843 27.8403 94.8368
205 2 26.9719 35.1536 96.2681
206 2 30.3773 34.8395 97.2291
207 1 29.7148 30.7482 98.5236
208 1 26.8032 30.6818 98.5911
209 2 26.0073 33.3914 98.6168
210 1 28.3546 33.0213 97.2454
211 1 28.2046 32.8574 100.431
212 2 26.5032 31.5784 95.8483
213 1 29.6288 31.9663 94.8955
214 1 29.5146 34.9605 94.8021
215 3 30.5764 33.3843 99.2314
216 1 35.2029 32.8631 98.9822
217 1 32.8914 34.3688 97.9525
218 1 32.6233 31.2823 99.0794
219 2 31.2021 32.3863 97.0076
220 3 34.755 33.4792 96.3658
221 1 33.5478 31.1031 96.2421
222 1 32.2903 33.8394 95.0785
223 2 37.1251 34.9715 99.9539
224 1 39.5504 31.1132 99.2042
225 1 39.891 34.1157 99.623
226 3 37.7184 33.0636 98.3727
227 5 36.8119 30.6097 99.4579
228 1 36.4929 31.4091 96.5253
229 4 37.0648 34.1023 95.3852
230 1 39.3624 32.2877 96.4104
231 3 41.7624 32.5542 100.539
232 5 44.317 33.979 96.8813
233 3 43.0707 32.5976 98.6632
234 4 41.3996 34.0765 97.2147
235 1 44.9665 30.9865 97.6775
236 4 42.3791 31.5898 96.3135
237 1 44.8719 31.982 94.8786
238 3 49.6972 32.9814 96.0365
239 2 45.3529 33.2718 99.4618
240 2 49.3907 31.798 98.2316
241 1 48.1322 33.7754 99.8667
242 1 47.1371 33.028 97.0682
243 1 47.05 30.8916 99.7177
244 1 53.1709 34.9671 99.0897
245 5 50.5104 34.1705 98.3138
246 1 52.3577 32.4971 96.9921
247 1 51.3827 34.8946 95.3153
248 3 51.6198 30.6209 98.8913
249 3 54.8491 31.4761 96.3409
250 1 54.3576 31.7721 99.1105
251 3 52.0324 32.7091 99.8754
252 3 54.7914 33.7754 97.2635
253 2 53.102 30.5128 94.8083
254 1 33.7711 23.8116 104.13
255 4 31.2378 24.2984 101.745
256 2 34.1207 22.9372 101.506
257 1 35.4341 24.581 106.464
258 1 36.679 24.499 102.918
259 1 38.1971 23.6319 105.417
260 3 39.6617 24.4166 103.098
261 2 38.6546 21.9336 103.293
262 4 35.9914 21.9617 104.257
263 3 38.7283 23.3556 101.246
264 1 36.657 21.8866 101.282
265 3 44.082 23.394 104.966
266 1 42.3915 24.5767 103.06
267 1 44.2418 22.304 102.506
268 1 41.1406 23.0078 105.134
269 1 41.1843 21.9553 102.316
270 4 42.8976 25.3671 106.358
271 1 46.3803 24.47 102.755
272 3 49.6021 24.3552 102.91
273 1 46.0607 25.2895 106.199
274 1 30.3081 29.7981 103.38
275 1 29.6672 27.1081 102.361
276 3 27.7159 29.0132 102.91
277 2 30.1472 27.9252 105.48
278 2 28.655 30.1615 105.627
279 3 35.393 29.8436 105.845
280 2 34.6696 29.1844 103.404
281 1 32.684 29.0801 105.215
282 1 34.7272 26.7234 104.415
283 2 32.5304 28.0261 102.556
284 1 31.7536 26.0531 104.228
285 1 33.7689 25.6142 101.751
286 5 40.0874 28.5897 103.996
287 1 40.0913 25.9505 105.234
288 1 37.2197 28.768 104.251
289 3 37.3199 26.1802 105.161
290 3 38.4416 26.6188 103.063
291 3 36.4592 30.0822 101.935
292 1 36.0855 27.3253 101.78
293 1 38.6612 28.871 101.343
294 3 44.4445 25.6953 104.225
295 2 42.5007 28.6545 100.999
296 1 44.5226 27.9143 105.828
297 1 41.6731 28.3107 106.526
298 1 43.1788 29.3482 103.541
299 3 42.3503 26.9905 104.182
300 1 44.2303 26.8155 101.884
301 1 40.8622 26.7542 101.862
302 1 46.5347 30.059 105.003
303 3 48.8253 28.3862 103.998
304 1 48.7024 25.8535 105.019
305 1 46.4927 27.3277 103.717
306 2 45.4729 29.3622 102.221
307 2 48.551 26.3568 102.229
308 1 49.8726 28.4854 106.377
309 3 47.2829 27.8661 106.366
310 1 47.3066 28.0299 100.782
311 1 50.1694 28.6748 101.743
312 3 52.7214 27.7082 102.169
313 1 50.9803 25.9235 101.011
314 1 51.7866 29.3094 104.158
315 3 50.778 26.7815 103.644
316 2 28.7722 30.3763 101.182
317 1 26.1805 35.1431 100.831
318 2 29.9503 34.9501 101.049
319 1 28.0436 31.8151 103.444
320 2 27.9816 34.4477 102.648
321 1 28.6586 34.2278 105.347
322 2 26.3544 30.9314 101.314
323 2 30.7648 31.645 101.104
324 1 30.5376 33.4138 103.033
325 1 30.8637 31.9306 105.459
326 1 31.6083 35.0754 105.448
327 2 33.2817 33.6705 103.864
328 1 33.6776 31.9477 106.093
329 1 32.8806 31.1263 102.893
330 1 32.7207 33.5042 100.975
331 3 34.9133 31.8551 101.34
332 1 35.5741 34.2985 102.509
333 5 35.4924 34.249 105.466
334 1 38.2365 34.7567 106.562
335 5 37.9855 33.444 104.124
336 1 35.824 31.6409 103.948
337 3 38.613 30.9628 103.17
338 1 38.5685 31.0791 105.788
339 1 37.7025 32.5814 101.251
340 1 40.9309 30.5245 101.919
341 1 40.371 33.3957 102.597
342 3 44.8979 31.51 103.558
343 1 43.7061 30.9599 105.992
344 1 43.9259 33.7052 104.819
345 3 42.5595 32.0596 103.304
346 1 40.876 33.3176 105.496
347 2 41.125 30.7437 104.838
348 1 43.6984 33.993 101.794
349 1 44.0478 31.168 100.927
350 4 47.7763 30.3959 102.451
351 1 49.9023 33.382 105.73
352 2 49.0522 33.0494 103.013
353 1 46.975 33.1135 104.87
354 4 49.3802 30.8475 104.324
355 1 46.447 32.9263 102.034
356 3 48.2927 35.2243 102.515
357 1 49.9509 31.5431 100.933
358 1 50.8017 34.5729 101.268
359 1 53.828 33.5805 101.692
360 1 52.6737 34.4228 105.419
361 3 50.5482 35.0127 103.818
362 1 51.7303 32.3866 103.456
363 1 52.8338 30.4519 101.389
364 3 51.2333 31.0519 106.223
365 4 40.5647 24.4568 107.682
366 1 30.7922 29.7334 107.572
367 1 33.8002 29.5448 107.985
368 1 32.8972 26.6589 106.995
369 2 32.0581 28.0149 109.343
370 2 35.2486 29.4514 110.355
371 3 34.517 27.1336 109.264
372 5 37.9642 25.5212 107.75
373 4 40.189 27.056 109.103
374 5 36.7921 30.0674 108.158
375 5 37.2489 27.6749 109.608
376 4 40.1462 30.3053 112.203
377 1 35.8522 27.5261 107.03
378 4 39.3185 29.7063 109.486
379 1 38.7466 28.2532 106.817
380 3 43.6783 29.1864 108.057
381 4 42.9101 26.7111 108.818
382 1 42.1637 29.4011 110.159
383 2 45.9169 30.0514 107.625
384 1 45.6846 27.3285 108.48
385 1 48.0554 28.9517 108.859
386 2 45.2842 29.4852 110.27
387 1 28.9131 32.261 107.559
388 2 30.3724 34.8881 107.827
389 1 33.6955 34.6318 107.604
390 1 33.2624 34.1407 110.638
391 2 32.5965 30.6002 110.247
392 1 31.741 32.5137 108.468
393 1 34.7982 32.0445 109.233
394 1 37.3567 31.468 110.786
395 1 39.0294 32.9886 112.719
396 3 38.7061 34.0135 110.262
397 1 36.338 34.2641 111.556
398 4 38.6008 32.3293 108.305
399 4 36.5048 34.1201 108.627
400 2 36.2907 32.1971 106.768
401 2 40.4516 34.2759 108.05
402 4 43.0222 33.6367 107.605
403 1 41.2221 31.0549 107.654
404 1 41.745 34.2881 112.56
405 1 44.0266 31.6097 109.175
406 3 43.0546 33.8539 110.264
407 1 40.818 32.401 110.27
408 1 43.1256 31.6225 111.984
409 2 45.603 32.561 107.131
410 5 47.7433 33.9913 107.516
411 1 48.2627 34.6614 110.274
412 3 49.6556 32.7699 108.811
413 1 47.0015 31.8592 109.61
414 2 45.3292 33.2849 111.594
415 1 45.4917 34.6158 109.255
416 1 48.4546 31.1252 107.026
417 3 51.8111 33.0825 107.6
418 1 33.839 38.6974 86.7785
419 3 31.6595 37.4783 87.9407
420 1 33.8478 35.7485 87.5914
421 1 38.3 39.9956 84.8223
422 4 38.2648 37.6188 82.854
423 1 39.5368 37.2615 85.3922
424 2 38.675 38.513 87.5475
425 1 36.3903 37.2452 88.2525
426 1 36.4684 37.5073 85.3241
427 3 38.0632 35.4972 86.9059
428 4 40.7539 39.1258 83.2084
429 1 41.3396 37.4572 87.8478
430 1 43.8246 38.8678 86.8835
431 2 41.6408 40.0977 88.5281
432 2 44.4643 39.1547 84.213
433 1 41.1606 39.8573 85.8936
434 4 42.3703 37.3343 84.6765
435 3 40.4454 35.6052 83.4291
436 2 43.9687 36.8695 88.8043
437 1 43.3027 35.2298 86.7228
438 2 45.8482 39.9084 88.5826
439 2 47.7555 35.2969 85.2667
440 1 45.2342 36.5454 84.8953
441 1 48.4465 39.4975 87.6532
442 1 49.0503 36.418 87.4794
443 1 46.2843 37.4304 87.5396
444 2 47.4806 38.2084 85.2325
445 2 33.9604 41.5169 86.992
446 1 36.3095 42.8146 88.4216
447 2 40.1088 42.0833 84.6607
448 1 36.4062 40.1481 87.068
449 1 39.0323 44.1747 88.3679
450 3 37.8301 42.628 86.0523
451 1 39.2035 41.1381 87.6882
452 1 44.3722 44.5695 88.6761
453 1 43.4079 41.5498 85.1547
454 1 43.7258 41.7325 88.1625
455 1 41.4648 43.1406 86.7566
456 2 49.4993 41.8326 88.7708
457 1 46.1351 40.6336 86.0398
458 1 46.7363 42.5568 88.4579
459 1 29.6263 38.1161 89.6458
460 1 29.852 35.9706 92.0159
461 4 30.1705 37.8622 94.2307
462 4 27.2146 36.6587 90.9268
463 3 28.8076 38.6432 92.2079
464 1 27.8547 39.4389 94.6661
465 1 27.3019 36.5761 93.8352
466 2 32.0165 36.1586 93.7074
467 4 33.9864 36.968 92.3122
468 1 31.6687 38.5057 91.729
469 2 34.9818 39.411 91.758
470 1 32.0023 35.8935 90.0354
471 1 33.9909 38.0384 89.6925
472 1 33.1052 38.8226 94.3686
473 1 31.9145 40.1042 89.0222
474 3 34.873 35.4238 90.3728
475 3 39.4467 37.6146 92.1999
476 1 37.7751 39.9072 92.5677
477 4 38.1019 35.9697 93.6608
478 2 40.1628 35.3669 91.6946
479 5 35.9575 38.108 93.9842
480 1 36.8502 37.3072 91.2223
481 1 39.6306 39.1152 90.0833
482 2 36.9598 39.6935 89.7314
483 1 39.0312 36.2837 89.3332
484 2 44.6735 37.5695 94.1986
485 3 43.1606 38.8991 92.6223
486 1 41.9038 36.7598 93.4805
487 1 44.2616 36.5343 91.4605
488 1 40.7338 39.5237 93.5566
489 3 41.6925 37.5148 90.8003
490 1 43.7272 39.2571 90.0637
491 1 45.9275 39.1678 92.4933
492 1 47.1786 36.2958 92.5959
493 1 48.8827 37.6169 90.1987
494 2 46.2177 37.988 90.1516
495 1 48.9887 38.9851 92.8485
496 1 46.899 35.3545 89.7905
497 3 50.7308 39.1838 89.0833
498 2 50.0594 36.4634 92.9614
499 2 51.5816 39.716 93.6196
500 5 52.9479 37.0646 93.8111
501 1 51.6346 37.9588 91.3806
502 1 51.2567 35.6874 89.4526
503 3 30.1367 40.6626 91.2234
504 5 30.474 43.0687 92.5348
505 3 35.1398 44.4623 90.2879
506 2 34.6799 40.5128 89.2455
507 1 32.874 42.7826 94.5351
508 1 30.6319 40.6708 94.0751
509 1 32.8577 41.2563 91.8755
510 5 35.041 40.9407 93.9593
511 2 35.07 43.8019 93.0983
512 1 32.8671 44.4318 91.7649
513 1 33.2505 42.8206 89.3286
514 1 35.7151 41.9959 91.2495
515 1 37.5919 44.5895 91.4023
516 1 39.9159 44.1633 94.4991
517 1 37.3827 42.7384 93.8054
518 3 39.7149 41.9043 92.9509
519 1 38.5957 41.927 90.4564
520 1 40.6309 43.9637 91.4326
521 5 41.9118 42.1009 94.4854
522 1 44.0686 41.4076 92.7338
523 2 42.8572 43.8233 92.8422
524 1 41.6299 40.9895 91.2488
525 3 43.1213 43.0502 90.4715
526 2 44.5183 43.0587 94.6851
527 3 41.0369 42.4225 89.2044
528 3 41.7029 44.7433 88.9579
529 3 45.2475 41.5102 90.4176
530 1 45.4275 43.9823 91.5118
531 1 49.0668 41.822 93.7402
532 3 46.7001 41.792 92.5474
533 1 48.4398 43.2771 91.0616
534 1 46.9905 43.9799 94.2144
535 1 47.7544 40.4155 90.4528
536 3 49.5139 44.5639 93.11
537 3 51.3832 42.8725 93.0612
538 1 50.6507 40.953 91.2244
539 1 33.5829 45.7557 94.3046
540 2 35.2916 46.1922 92.0849
541 1 37.1803 45.9641 94.1768
542 3 39.4483 46.0319 92.7017
543 4 36.8679 46.1466 89.1291
544 1 37.6616 47.7064 91.7344
545 4 38.3836 49.2756 94.1828
546 1 39.924 46.5456 90.0577
547 4 35.4996 48.2178 93.968
548 1 43.6192 48.0164 93.2625
549 3 44.5147 45.4971 93.4689
550 1 40.777 48.2782 92.3565
551 1 42.9085 45.9643 91.0433
552 2 41.7968 45.9924 93.4735
553 2 41.4717 49.4815 94.7755
554 4 45.5242 47.085 91.1248
555 3 47.4684 45.7094 92.2323
556 3 46.2275 47.3364 93.7255
557 4 47.1608 45.3519 89.4667
558 1 48.5482 46.5243 94.7355
559 2 27.0504 37.9377 98.9215
560 1 28.7165 37.2764 96.6573
561 2 25.6699 36.0017 98.2585
562 3 29.5528 38.3351 98.9574
563 4 27.8257 40.0885 97.5742
564 2 26.1425 37.7988 96.2867
565 2 30.277 39.5547 96.5825
566 1 27.9286 40.04 100.605
567 1 28.3478 35.4603 98.8821
568 1 35.107 39.9728 100.117
569 1 34.8202 39.2071 96.9275
570 1 32.2255 39.2446 98.4478
571 2 33.4132 37.945 100.442
572 3 33.8635 36.9923 98.0281
573 1 31.3241 36.4007 99.3664
574 1 34.5211 35.6141 100.177
575 1 31.7388 37.0435 96.4213
576 1 34.408 36.0513 95.4498
577 3 37.5947 39.1572 100.737
578 1 40.102 39.8415 100.562
579 1 39.024 38.6603 97.7806
580 1 39.1555 36.9377 100.252
581 1 36.421 37.5465 98.9856
582 2 36.7301 37.2875 96.33
583 1 38.4333 35.551 97.4875
584 2 35.7666 35.2267 97.7051
585 4 38.758 38.0173 94.8935
586 4 40.2756 35.6787 95.4168
587 1 43.3778 39.7852 100.677
588 1 41.9102 39.5961 97.994
589 3 43.83 37.8348 98.7501
590 1 43.2024 36.6763 96.4195
591 3 41.7491 37.7069 99.9936
592 2 40.9086 36.6702 97.9843
593 1 43.4133 39.7405 95.3406
594 1 42.9262 35.2492 99.2458
595 2 41.0891 38.2059 95.8739
596 4 48.3246 38.2693 97.7599
597 1 46.1062 38.4965 99.9898
598 1 45.8145 35.8469 98.5686
599 1 48.7579 36.6335 100.169
600 4 45.6162 38.4333 96.9292
601 4 46.1337 35.8762 95.7403
602 4 48.488 35.6544 97.453
603 5 48.8162 39.4439 100.573
604 4 48.6393 35.543 94.9946
605 4 47.4263 38.1689 95.0221
606 4 50.7963 39.3874 98.2796
607 1 53.6477 38.0814 98.9475
608 4 51.1398 36.7964 97.9173
609 1 53.8563 36.1468 96.4427
610 1 50.4661 37.7873 95.3021
611 1 53.0042 38.9951 96.1431
612 2 51.6835 37.0838 100.538
613 3 30.2588 40.6282 99.3763
614 1 28.5074 42.5817 98.975
615 1 30.4561 44.9827 98.5795
616 4 28.5742 42.1878 95.6037
617 1 33.1927 44.2144 97.1607
618 3 31.0672 42.8892 99.9768
619 2 33.34 41.7042 98.445
620 1 30.9165 42.1879 97.2625
621 3 32.6575 40.6434 96.1338
622 3 34.8551 41.8377 96.3763
623 4 30.5913 44.4411 95.2657
624 1 33.4373 44.0103 100.106
625 2 37.04 40.3208 98.3869
626 1 37.2991 40.2843 95.6783
627 1 38.4889 43.9851 99.3672
628 1 35.8208 42.7115 98.7058
629 4 37.9216 42.8452 96.6729
630 5 35.6271 44.1834 95.7231
631 2 39.2217 41.4445 98.5328
632 4 40.0818 41.0257 96.0767
633 1 42.719 44.7663 95.6423
634 3 44.5053 40.4256 98.0398
635 1 44.7231 42.2823 99.9673
636 5 40.633 43.7202 97.308
637 1 41.6444 42.198 99.531
638 2 42.9546 42.1292 96.9811
639 1 43.3586 44.5488 98.566
640 4 49.3258 40.2506 96.0536
641 1 48.0862 44.953 97.228
642 1 47.2055 40.8568 98.3425
643 1 47.401 43.586 99.6807
644 1 45.5543 43.1122 97.1254
645 1 46.226 40.8545 95.1344
646 3 48.0939 42.5075 96.2684
647 1 49.9673 42.2352 98.2761
648 1 50.3174 44.0177 95.5762
649 4 54.5049 40.5971 100.104
650 4 52.8631 41.2618 98.0934
651 1 52.194 42.767 100.612
652 2 50.0524 44.6421 99.6145
653 4 52.118 44.1432 97.9208
654 4 51.8413 41.6147 95.4585
655 4 31.6829 46.787 96.3597
656 4 34.5948 47.1919 96.4903
657 1 32.9483 46.6976 98.9743
658 1 39.9943 47.1642 95.189
659 2 35.7829 45.3947 98.1001
660 4 38.2887 45.4636 96.8445
661 5 37.2752 48.0307 96.5684
662 5 35.5273 47.8368 99.0705
663 4 37.3204 49.9176 98.9138
664 1 39.7984 49.2908 97.5648
665 1 38.3953 47.0459 99.2771
666 3 39.233 49.332 100.624
667 3 42.6808 47.3657 95.5862
668 5 45.0547 48.872 95.6635
669 4 40.9045 45.032 100.118
670 1 41.9048 49.3991 99.9454
671 1 42.7572 49.5514 97.1845
672 1 43.3468 46.8883 100.495
673 1 41.228 46.7661 97.9211
674 2 43.8757 47.1197 97.7186
675 1 45.4282 45.9545 95.8801
676 4 45.8595 45.9325 98.8883
677 1 47.3504 47.9177 97.1585
678 2 48.3507 46.7129 99.4982
679 1 45.2072 48.9904 98.9718
680 4 50.3229 46.5911 97.3909
681 1 28.4011 37.1306 101.285
682 5 28.8008 37.1357 105.747
683 4 25.7303 38.0438 101.229
684 4 26.8763 36.612 103.688
685 1 28.747 39.2782 103.508
686 1 30.0941 40.0311 106.15
687 2 29.7189 36.1032 103.413
688 1 31.3764 37.8951 104.438
689 1 33.1944 39.6008 105.899
690 1 33.7616 38.9766 102.873
691 5 34.2391 36.3881 104.297
692 1 32.2647 36.0612 102.29
693 1 30.8591 38.6832 101.389
694 3 33.2737 37.0297 106.563
695 1 39.7986 35.9524 104.214
696 1 38.1618 38.2185 105.153
697 3 36.9785 36.0247 104.316
698 3 35.5176 38.5769 104.893
699 3 38.7371 38.0307 102.621
700 1 36.1839 37.3198 102.104
701 2 38.2366 35.2867 102.149
702 3 44.9651 39.3085 102.707
703 1 42.1501 36.0277 106.292
704 1 44.1471 37.4253 104.415
705 1 41.4245 38.0101 102.628
706 2 40.9604 38.2317 105.348
707 2 42.3743 35.5072 103.596
708 1 44.0229 36.9315 101.489
709 2 41.2798 35.6177 101.384
710 1 42.6913 40.07 104.238
711 3 48.9966 38.6822 104.913
712 1 46.548 38.3933 105.99
713 1 48.3529 35.9775 105.167
714 1 47.0865 37.6681 102.802
715 1 45.4132 35.5928 106.452
716 2 49.7113 40.0754 103.015
717 2 46.252 35.5102 101.127
718 2 45.8104 35.3326 103.611
719 1 50.082 37.4325 102.717
720 1 52.3112 39.1554 103.788
721 1 52.8878 36.1864 102.943
722 5 51.2488 36.989 105.449
723 3 53.8023 38.4643 101.655
724 3 54.6229 36.2389 100.854
725 1 51.6442 39.8693 100.927
726 1 29.1326 43.9353 101.506
727 1 29.3263 42.2834 104.16
728 2 29.9462 41.3477 101.731
729 1 32.5983 41.0602 101.01
730 3 31.6966 41.9513 105.3
731 1 32.2764 44.5166 105.483
732 2 35.0857 42.3285 101.492
733 2 34.1836 44.4694 102.663
734 1 31.8235 43.225 102.794
735 1 34.1149 41.7513 103.981
736 3 31.4588 40.4221 103.501
737 3 34.7586 44.1188 104.973
738 1 36.6563 40.2611 103.169
739 1 39.6693 40.4874 103.49
740 3 36.1487 42.2956 105.683
741 1 39.2083 43.0954 105.191
742 3 37.9771 40.7739 105.582
743 1 36.8988 43.4056 103.291
744 1 39.7742 43.2475 102.139
745 1 36.9166 44.7827 106.328
746 5 37.671 41.7011 100.853
747 1 44.5764 41.9563 103.044
748 2 42.8898 41.9274 106.147
749 1 40.5682 40.5693 106.487
750 1 43.7527 44.2268 104.868
751 2 41.6342 42.7195 104.159
752 3 41.8542 41.3963 102.081
753 1 42.8985 43.9325 101.795
754 2 41.1723 44.8602 105.621
755 2 45.0256 40.6028 105.513
756 2 46.6248 40.8429 101.145
757 1 48.9346 42.7876 104.192
758 3 46.3064 42.7594 104.93
759 1 47.8576 41.0917 106.568
760 1 47.1909 40.4578 103.707
761 2 46.9375 43.0157 102.335
762 2 45.3998 44.7151 101.242
763 1 49.3871 42.1752 101.298
764 5 47.528 44.3017 106.751
765 1 50.6882 40.7663 105.612
766 3 53.6053 41.1212 102.436
767 3 51.4033 43.4419 105.006
768 3 51.4028 41.7979 103.132
769 2 50.9614 44.2614 102.614
770 2 30.1143 45.1345 103.872
771 3 34.6398 46.2536 106.127
772 5 33.1174 46.6204 103.818
773 3 34.2261 46.7949 101.394
774 1 31.4973 45.8703 101.466
775 1 36.7825 48.1609 101.566
776 1 39.1563 48.1611 103.225
777 1 37.6469 47.5961 105.896
778 2 38.571 45.7776 101.865
779 1 36.0634 46.283 103.707
780 2 38.7694 45.6058 104.394
781 1 36.1738 45.1125 100.798
782 2 40.5612 47.3019 100.981
783 2 44.3702 49.3721 101.546
784 1 40.688 47.6044 105.717
785 1 42.2208 48.5351 102.981
786 1 41.1943 45.7846 103.186
787 3 44.025 46.1398 102.894
788 2 43.1335 46.8659 105.052
789 1 46.2971 47.3146 101.396
790 1 45.2015 48.2246 104.003
791 1 48.5753 45.2933 101.898
792 1 49.3526 45.5139 104.845
793 3 47.8144 47.4445 103.71
794 1 45.5718 46.3861 106.399
795 1 46.3705 45.1822 103.851
796 1 32.0005 39.7957 108.607
797 5 35.0857 36.2236 109.674
798 1 33.8776 38.5265 110.996
799 3 34.1948 38.3997 108.305
800 1 32.2273 36.6729 109.253
801 2 30.9487 37.5621 107.133
802 1 39.0844 35.9301 112.267
803 1 38.4669 39.1073 107.916
804 1 38.9399 38.7983 110.984
805 2 36.3283 38.5718 109.511
806 1 38.1635 36.4185 109.298
807 1 36.4651 37.3075 111.965
808 3 36.2828 40.0377 111.698
809 3 39.7095 36.837 107.048
810 1 36.0387 36.9044 106.949
811 4 40.9145 35.583 110.078
812 3 41.4117 39.9311 111.058
813 1 44.0775 35.9467 111.625
814 1 43.8119 38.7554 110.501
815 1 41.147 38.2919 108.817
816 4 43.1298 36.225 108.888
817 2 41.5502 37.4346 111.783
818 5 43.3305 38.7399 106.866
819 2 45.254 37.5317 108.465
820 5 47.6891 36.6788 108.066
821 5 49.8675 38.4343 107.352
822 3 49.4759 37.1012 109.923
823 1 48.0181 39.3288 109.273
824 5 46.623 37.1572 110.767
825 1 50.3531 35.4314 107.85
826 1 34.6622 40.9963 109.635
827 1 33.5776 42.3326 107.051
828 2 35.6066 43.3329 108.264
829 1 38.0572 42.3706 107.822
830 3 37.2536 45.0178 109.055
831 3 39.9838 41.0423 109.309
832 1 36.5884 42.8821 110.792
833 3 37.4803 40.7318 109.714
834 4 39.0232 41.4467 111.984
835 1 39.3119 43.6978 110.177
836 1 35.8605 40.1377 107.112
837 1 41.0567 43.2181 107.746
838 2 44.7213 42.0835 110.296
839 3 43.2837 43.6344 109.068
840 1 41.8641 42.5457 111.002
841 1 42.6799 40.9296 108.716
842 1 45.0246 42.9345 107.225
843 1 45.4576 40.2137 108.274
844 5 46.2173 40.1378 111.266
845 2 49.8396 43.1632 106.986
846 2 49.9848 41.0408 108.414
847 1 45.553 44.9963 109.132
848 1 47.3637 42.4565 109.205
849 1 39.4796 45.7106 107.659
850 1 42.8701 45.753 107.523
851 2 41.522 45.2779 109.875
